 Entering Gaussian System, Link 0=g16
 Input=/net/homes/chemie/zhartovska/work/BioModel/Konrad/1a6g/1a6g12/1a6g16/Teil1/def2TZVP/nbo/1a6g16.com
 Output=/net/homes/chemie/zhartovska/work/BioModel/Konrad/1a6g/1a6g12/1a6g16/Teil1/def2TZVP/nbo/1a6g16.log
 Initial command:
 /afs/math/software/gaussian/g16.A03/g16/l1.exe "/scratch/zhartovska_gaussian.v2SntzB/Gau-475.inp" -scrdir="/scratch/zhartovska_gaussian.v2SntzB/"
 Entering Link 1 = /afs/math/software/gaussian/g16.A03/g16/l1.exe PID=       476.
  
 Copyright (c) 1988,1990,1992,1993,1995,1998,2003,2009,2016,
            Gaussian, Inc.  All Rights Reserved.
  
 This is part of the Gaussian(R) 16 program.  It is based on
 the Gaussian(R) 09 system (copyright 2009, Gaussian, Inc.),
 the Gaussian(R) 03 system (copyright 2003, Gaussian, Inc.),
 the Gaussian(R) 98 system (copyright 1998, Gaussian, Inc.),
 the Gaussian(R) 94 system (copyright 1995, Gaussian, Inc.),
 the Gaussian 92(TM) system (copyright 1992, Gaussian, Inc.),
 the Gaussian 90(TM) system (copyright 1990, Gaussian, Inc.),
 the Gaussian 88(TM) system (copyright 1988, Gaussian, Inc.),
 the Gaussian 86(TM) system (copyright 1986, Carnegie Mellon
 University), and the Gaussian 82(TM) system (copyright 1983,
 Carnegie Mellon University). Gaussian is a federally registered
 trademark of Gaussian, Inc.
  
 This software contains proprietary and confidential information,
 including trade secrets, belonging to Gaussian, Inc.
  
 This software is provided under written license and may be
 used, copied, transmitted, or stored only in accord with that
 written license.
  
 The following legend is applicable only to US Government
 contracts under FAR:
  
                    RESTRICTED RIGHTS LEGEND
  
 Use, reproduction and disclosure by the US Government is
 subject to restrictions as set forth in subparagraphs (a)
 and (c) of the Commercial Computer Software - Restricted
 Rights clause in FAR 52.227-19.
  
 Gaussian, Inc.
 340 Quinnipiac St., Bldg. 40, Wallingford CT 06492
  
  
 ---------------------------------------------------------------
 Warning -- This program may not be used in any manner that
 competes with the business of Gaussian, Inc. or will provide
 assistance to any competitor of Gaussian, Inc.  The licensee
 of this program is prohibited from giving any competitor of
 Gaussian, Inc. access to this program.  By using this program,
 the user acknowledges that Gaussian, Inc. is engaged in the
 business of creating and licensing software in the field of
 computational chemistry and represents and warrants to the
 licensee that it is not a competitor of Gaussian, Inc. and that
 it will not use this program in any manner prohibited above.
 ---------------------------------------------------------------
  

 Cite this work as:
 Gaussian 16, Revision A.03,
 M. J. Frisch, G. W. Trucks, H. B. Schlegel, G. E. Scuseria, 
 M. A. Robb, J. R. Cheeseman, G. Scalmani, V. Barone, 
 G. A. Petersson, H. Nakatsuji, X. Li, M. Caricato, A. V. Marenich, 
 J. Bloino, B. G. Janesko, R. Gomperts, B. Mennucci, H. P. Hratchian, 
 J. V. Ortiz, A. F. Izmaylov, J. L. Sonnenberg, D. Williams-Young, 
 F. Ding, F. Lipparini, F. Egidi, J. Goings, B. Peng, A. Petrone, 
 T. Henderson, D. Ranasinghe, V. G. Zakrzewski, J. Gao, N. Rega, 
 G. Zheng, W. Liang, M. Hada, M. Ehara, K. Toyota, R. Fukuda, 
 J. Hasegawa, M. Ishida, T. Nakajima, Y. Honda, O. Kitao, H. Nakai, 
 T. Vreven, K. Throssell, J. A. Montgomery, Jr., J. E. Peralta, 
 F. Ogliaro, M. J. Bearpark, J. J. Heyd, E. N. Brothers, K. N. Kudin, 
 V. N. Staroverov, T. A. Keith, R. Kobayashi, J. Normand, 
 K. Raghavachari, A. P. Rendell, J. C. Burant, S. S. Iyengar, 
 J. Tomasi, M. Cossi, J. M. Millam, M. Klene, C. Adamo, R. Cammi, 
 J. W. Ochterski, R. L. Martin, K. Morokuma, O. Farkas, 
 J. B. Foresman, and D. J. Fox, Gaussian, Inc., Wallingford CT, 2016.
 
 ******************************************
 Gaussian 16:  AM64L-G16RevA.03 25-Dec-2016
                 7-Nov-2022 
 ******************************************
 %nprocs=12
 Will use up to   12 processors via shared memory.
 %mem=16GB
 %oldchk=1a6g_III_Hn.chk
 %chk=1a6g_III_H.chk
 Copying data from "1a6g_III_Hn.chk" to current chk file "1a6g_III_H.chk"
 IOpt=  2 FromEx=T IUOpen= 4 IOptOp= 5 NList=   0 IFRang= 0 IUIn= 4 IUOut= 2.
 ----------------------------------------------------------------------
 # PBE1PBE/def2TZVP empiricaldispersion=GD3BJ scf=maxcycle=999 geom=che
 ck pop=nbo guess=read
 ----------------------------------------------------------------------
 1/29=2,38=1,172=1/1;
 2/12=2,40=1/2;
 3/5=44,7=101,11=2,14=-4,25=1,30=1,74=-13,116=-2,124=41/1,2,3;
 4/5=1/1;
 5/5=2,7=999,38=6/2;
 6/7=2,8=2,9=2,10=2,28=1,40=1/1,7;
 99/5=1,9=1/99;
 ----------
 1a6g_III_H
 ----------
 Structure from the checkpoint file:  "1a6g_III_H.chk"
 Charge =  1 Multiplicity = 6
 Z-Matrix found in chk file.
 C,0,9.563,29.266001,2.603
 C,0,10.793,29.143999,3.477
 N,0,11.018,29.971001,4.542
 C,0,11.903,28.341,3.405
 C,0,12.244,29.622999,5.051
 N,0,12.785,28.643,4.387
 Fe,0,14.633,27.799999,4.742
 C,0,15.982,30.875999,5.035
 C,0,13.859,27.797001,8.082
 C,0,13.333,24.698999,4.461
 C,0,15.457,27.771999,1.469
 N,0,14.899,29.068001,6.263
 C,0,15.422,30.325001,6.188
 C,0,15.366,30.961,7.489
 C,0,14.809,30.049999,8.337
 C,0,14.506,28.948,7.597
 C,0,14.492,30.266001,9.839
 C,0,15.74,32.409,7.822
 C,0,14.479,33.294998,8.021
 C,0,13.598,33.317001,6.814
 O,0,12.422,32.879002,6.9
 O,0,14.082,33.764999,5.74
 N,0,13.754,26.474001,5.981
 C,0,13.521,26.642,7.379
 C,0,12.876,25.492001,7.903
 C,0,12.732,24.643,6.9
 C,0,13.286,25.256001,5.694
 C,0,12.416,25.358,9.356
 C,0,12.192,23.231001,6.941
 C,0,12.38305219,22.46417462,8.04192843
 N,0,14.397,26.546,3.282
 C,0,13.905,25.194,3.289
 C,0,14.088,24.503,2.063
 C,0,14.7,25.377001,1.22
 C,0,14.902,26.634001,1.946
 C,0,13.664,23.054001,1.795
 C,0,15.247,25.156,-0.167
 C,0,15.06416569,23.96413626,-0.78554627
 N,0,15.464,29.084,3.481
 C,0,15.738,28.924999,2.139
 C,0,16.452,30.069,1.609
 C,0,16.638,30.898001,2.629
 C,0,16.014999,30.311001,3.762
 C,0,16.924,30.177999,0.162
 C,0,17.469999,32.186001,2.652
 C,0,18.965,31.896,2.978
 C,0,19.889999,33.044998,2.829
 O,0,20.224001,33.370998,1.661
 O,0,20.268999,33.573002,3.948
 C,0,16.25,26.974001,4.896
 O,0,17.216,26.469999,4.82
 H,0,9.78249371,28.89332331,1.62431014
 H,0,8.76391414,28.69704915,3.03038225
 H,0,9.27320393,30.29386396,2.5365472
 H,0,10.40958266,30.68774624,4.88274125
 H,0,12.70048136,30.10017914,5.89291679
 H,0,12.05198265,27.57743313,2.67037778
 H,0,17.40691131,32.65956714,1.69457896
 H,0,17.07220064,32.84541548,3.39485194
 H,0,19.02477263,31.5484893,3.98822945
 H,0,19.30100045,31.11142332,2.33267595
 H,0,21.2045082,33.66494555,4.14285617
 H,0,17.86512979,29.68019944,0.05536828
 H,0,16.20351763,29.72079699,-0.4835784
 H,0,17.03432371,31.20943176,-0.10044075
 H,0,15.70834431,27.76590573,0.42895726
 H,0,15.7796721,25.94014913,-0.66325656
 H,0,15.83983703,23.22731996,-0.76722379
 H,0,14.14413807,23.75991572,-1.29224454
 H,0,14.40496266,22.38767121,2.1847165
 H,0,12.72578882,22.86277156,2.27258882
 H,0,13.56537574,22.90042963,0.74068075
 H,0,12.86393113,23.74134886,4.37279224
 H,0,11.659085,22.83740957,6.10076944
 H,0,11.61192808,21.79954796,8.371381
 H,0,13.3050211,22.52335386,8.58171649
 H,0,13.14199189,25.8049104,10.00261184
 H,0,11.47553571,25.85315519,9.47948383
 H,0,12.3087638,24.3222186,9.60208389
 H,0,13.59359589,27.80975676,9.11848345
 H,0,16.43637544,31.83901328,5.14010215
 H,0,15.27425597,30.84039471,10.28960789
 H,0,13.56387559,30.78953431,9.93594302
 H,0,14.41906578,29.31716488,10.3281734
 H,0,16.32604873,32.81080885,7.02200217
 H,0,16.32062716,32.42156166,8.72067364
 H,0,14.79033499,34.29503346,8.23985976
 H,0,13.91886706,32.91748397,8.85083989
 H,0,15.03396822,33.81270625,5.62562988
 Recover connectivity data from disk.
 Stoichiometry    C39H38FeN6O5(1+,6)
 Framework group  C1[X(C39H38FeN6O5)]
 Deg. of freedom   261
 Full point group                 C1      NOp   1
 Largest Abelian subgroup         C1      NOp   1
 Largest concise Abelian subgroup C1      NOp   1
                         Standard orientation:                         
 ---------------------------------------------------------------------
 Center     Atomic      Atomic             Coordinates (Angstroms)
 Number     Number       Type             X           Y           Z
 ---------------------------------------------------------------------
      1          6           0       -1.668641   -0.145279    5.292812
      2          6           0       -1.254598   -0.464156    3.872057
      3          7           0       -0.483759   -1.549544    3.561379
      4          6           0       -1.440696    0.196128    2.683998
      5          6           0       -0.249098   -1.484741    2.210824
      6          7           0       -0.821448   -0.449671    1.667667
      7         26           0       -0.723984    0.098720   -0.317666
      8          6           0        2.602199   -0.452503   -0.308600
      9          6           0       -1.288254   -3.183982   -1.130162
     10          6           0       -4.050075    0.662815   -0.381545
     11          6           0       -0.167747    3.346614    0.413137
     12          7           0        0.427754   -1.492778   -0.681890
     13          6           0        1.785478   -1.552720   -0.571465
     14          6           0        2.242471   -2.903006   -0.832461
     15          6           0        1.127798   -3.637650   -1.110093
     16          6           0        0.058414   -2.804100   -0.985911
     17          6           0        1.080326   -5.157057   -1.413901
     18          6           0        3.674702   -3.431078   -0.700846
     19          6           0        3.855934   -4.280191    0.587903
     20          6           0        3.536533   -3.512247    1.829572
     21          8           0        2.595994   -3.898986    2.569866
     22          8           0        4.222159   -2.484528    2.078858
     23          7           0       -2.378579   -0.999116   -0.668528
     24          6           0       -2.422961   -2.382987   -1.014722
     25          6           0       -3.770152   -2.797530   -1.176984
     26          6           0       -4.526313   -1.733658   -0.967353
     27          6           0       -3.654506   -0.603317   -0.652072
     28          6           0       -4.190256   -4.236376   -1.483579
     29          6           0       -6.026696   -1.610473   -1.111223
     30          6           0       -6.680165   -2.342620   -2.045838
     31          7           0       -1.853023    1.642466    0.001596
     32          6           0       -3.276022    1.798386   -0.142558
     33          6           0       -3.726764    3.140054   -0.038615
     34          6           0       -2.619367    3.899004    0.177573
     35          6           0       -1.459521    3.003438    0.203034
     36          6           0       -5.187114    3.592041   -0.158132
     37          6           0       -2.475848    5.397954    0.243669
     38          6           0       -3.575721    6.187318    0.182421
     39          7           0        0.872470    1.209764    0.064770
     40          6           0        0.940568    2.555549    0.357252
     41          6           0        2.315034    3.001552    0.463842
     42          6           0        3.072133    1.942310    0.204909
     43          6           0        2.195439    0.846664   -0.012707
     44          6           0        2.718319    4.445503    0.748162
     45          6           0        4.595561    1.896357    0.035348
     46          6           0        5.017935    2.207241   -1.431061
     47          6           0        6.472441    2.383974   -1.657329
     48          8           0        6.986048    3.473400   -1.294814
     49          8           0        7.048103    1.379372   -2.235236
     50          6           0       -0.707283    0.741667   -2.022664
     51          8           0       -0.696536    1.279695   -2.973117
     52          1           0       -1.836314    0.907229    5.387752
     53          1           0       -2.569273   -0.672632    5.528737
     54          1           0       -0.892990   -0.445045    5.966167
     55          1           0       -0.155767   -2.251803    4.193244
     56          1           0        0.334506   -2.199547    1.669198
     57          1           0       -2.000820    1.101266    2.574979
     58          1           0        5.041394    2.617982    0.687567
     59          1           0        4.947155    0.921234    0.300706
     60          1           0        4.678611    1.405425   -2.053034
     61          1           0        4.521209    3.103767   -1.738317
     62          1           0        7.554201    1.513922   -3.039823
     63          1           0        2.724768    5.000719   -0.166493
     64          1           0        2.017339    4.884539    1.426967
     65          1           0        3.695637    4.463766    1.183381
     66          1           0        0.006582    4.374245    0.654974
     67          1           0       -1.505558    5.838816    0.338950
     68          1           0       -3.864893    6.630747   -0.747445
     69          1           0       -4.154954    6.367134    1.063928
     70          1           0       -5.452571    3.671056   -1.191665
     71          1           0       -5.822415    2.875707    0.319527
     72          1           0       -5.305408    4.544762    0.314339
     73          1           0       -5.108706    0.814244   -0.345925
     74          1           0       -6.572323   -0.945247   -0.475090
     75          1           0       -7.646290   -2.747955   -1.828566
     76          1           0       -6.229988   -2.515355   -3.001036
     77          1           0       -3.495847   -4.671813   -2.171395
     78          1           0       -4.199738   -4.805871   -0.577772
     79          1           0       -5.168989   -4.237723   -1.915991
     80          1           0       -1.463053   -4.215074   -1.356426
     81          1           0        3.657692   -0.625715   -0.337457
     82          1           0        1.925238   -5.427758   -2.012018
     83          1           0        1.103234   -5.705339   -0.495335
     84          1           0        0.179738   -5.386813   -1.944046
     85          1           0        4.350770   -2.602274   -0.670571
     86          1           0        3.902894   -4.036883   -1.552802
     87          1           0        4.870503   -4.616001    0.640649
     88          1           0        3.211609   -5.132707    0.533493
     89          1           0        4.715457   -2.054597    1.376422
 ---------------------------------------------------------------------
 Rotational constants (GHZ):           0.0695993           0.0511366           0.0378352
 Standard basis: def2TZVP (5D, 7F)
 There are  2080 symmetry adapted cartesian basis functions of A   symmetry.
 There are  1823 symmetry adapted basis functions of A   symmetry.
  1823 basis functions,  2956 primitive gaussians,  2080 cartesian basis functions
   192 alpha electrons      187 beta electrons
       nuclear repulsion energy      7864.1666777320 Hartrees.
 NAtoms=   89 NActive=   89 NUniq=   89 SFac= 1.00D+00 NAtFMM=   60 NAOKFM=T Big=T
 Integral buffers will be    131072 words long.
 Raffenetti 2 integral format.
 Two-electron integral symmetry is turned on.
 Nuclear repulsion after empirical dispersion term =     7864.0371318496 Hartrees.
 One-electron integrals computed using PRISM.
   1 Symmetry operations used in ECPInt.
 ECPInt:  NShTT=  257403 NPrTT=  800753 LenC2=  189729 LenP2D=  382375.
 LDataN:  DoStor=T MaxTD1= 6 Len=  172
 NBasis=  1823 RedAO= T EigKep=  2.76D-06  NBF=  1823
 NBsUse=  1823 1.00D-06 EigRej= -1.00D+00 NBFU=  1823
 Initial guess from the checkpoint file:  "1a6g_III_H.chk"
 B after Tr=    -0.000000   -0.000000    0.000000
         Rot=    1.000000   -0.000000   -0.000000    0.000000 Ang=   0.00 deg.
 Initial guess <Sx>= 0.0000 <Sy>= 0.0000 <Sz>= 2.5000 <S**2>= 8.8471 S= 2.5161
 Requested convergence on RMS density matrix=1.00D-08 within 999 cycles.
 Requested convergence on MAX density matrix=1.00D-06.
 Requested convergence on             energy=1.00D-06.
 No special actions if energy rises.
 SCF Done:  E(UPBE1PBE) =  -3475.23905961     A.U. after    1 cycles
            NFock=  1  Conv=0.15D-08     -V/T= 2.0031
 <Sx>= 0.0000 <Sy>= 0.0000 <Sz>= 2.5000 <S**2>= 8.8471 S= 2.5161
 <L.S>= 0.000000000000E+00
 Annihilation of the first spin contaminant:
 S**2 before annihilation     8.8471,   after     8.7528

 **********************************************************************

            Population analysis using the SCF density.

 **********************************************************************

 Orbital symmetries:
 Alpha Orbitals:
       Occupied  (A) (A) (A) (A) (A) (A) (A) (A) (A) (A) (A) (A)
                 (A) (A) (A) (A) (A) (A) (A) (A) (A) (A) (A) (A)
                 (A) (A) (A) (A) (A) (A) (A) (A) (A) (A) (A) (A)
                 (A) (A) (A) (A) (A) (A) (A) (A) (A) (A) (A) (A)
                 (A) (A) (A) (A) (A) (A) (A) (A) (A) (A) (A) (A)
                 (A) (A) (A) (A) (A) (A) (A) (A) (A) (A) (A) (A)
                 (A) (A) (A) (A) (A) (A) (A) (A) (A) (A) (A) (A)
                 (A) (A) (A) (A) (A) (A) (A) (A) (A) (A) (A) (A)
                 (A) (A) (A) (A) (A) (A) (A) (A) (A) (A) (A) (A)
                 (A) (A) (A) (A) (A) (A) (A) (A) (A) (A) (A) (A)
                 (A) (A) (A) (A) (A) (A) (A) (A) (A) (A) (A) (A)
                 (A) (A) (A) (A) (A) (A) (A) (A) (A) (A) (A) (A)
                 (A) (A) (A) (A) (A) (A) (A) (A) (A) (A) (A) (A)
                 (A) (A) (A) (A) (A) (A) (A) (A) (A) (A) (A) (A)
                 (A) (A) (A) (A) (A) (A) (A) (A) (A) (A) (A) (A)
                 (A) (A) (A) (A) (A) (A) (A) (A) (A) (A) (A) (A)
       Virtual   (A) (A) (A) (A) (A) (A) (A) (A) (A) (A) (A) (A)
                 (A) (A) (A) (A) (A) (A) (A) (A) (A) (A) (A) (A)
                 (A) (A) (A) (A) (A) (A) (A) (A) (A) (A) (A) (A)
                 (A) (A) (A) (A) (A) (A) (A) (A) (A) (A) (A) (A)
                 (A) (A) (A) (A) (A) (A) (A) (A) (A) (A) (A) (A)
                 (A) (A) (A) (A) (A) (A) (A) (A) (A) (A) (A) (A)
                 (A) (A) (A) (A) (A) (A) (A) (A) (A) (A) (A) (A)
                 (A) (A) (A) (A) (A) (A) (A) (A) (A) (A) (A) (A)
                 (A) (A) (A) (A) (A) (A) (A) (A) (A) (A) (A) (A)
                 (A) (A) (A) (A) (A) (A) (A) (A) (A) (A) (A) (A)
                 (A) (A) (A) (A) (A) (A) (A) (A) (A) (A) (A) (A)
                 (A) (A) (A) (A) (A) (A) (A) (A) (A) (A) (A) (A)
                 (A) (A) (A) (A) (A) (A) (A) (A) (A) (A) (A) (A)
                 (A) (A) (A) (A) (A) (A) (A) (A) (A) (A) (A) (A)
                 (A) (A) (A) (A) (A) (A) (A) (A) (A) (A) (A) (A)
                 (A) (A) (A) (A) (A) (A) (A) (A) (A) (A) (A) (A)
                 (A) (A) (A) (A) (A) (A) (A) (A) (A) (A) (A) (A)
                 (A) (A) (A) (A) (A) (A) (A) (A) (A) (A) (A) (A)
                 (A) (A) (A) (A) (A) (A) (A) (A) (A) (A) (A) (A)
                 (A) (A) (A) (A) (A) (A) (A) (A) (A) (A) (A) (A)
                 (A) (A) (A) (A) (A) (A) (A) (A) (A) (A) (A) (A)
                 (A) (A) (A) (A) (A) (A) (A) (A) (A) (A) (A) (A)
                 (A) (A) (A) (A) (A) (A) (A) (A) (A) (A) (A) (A)
                 (A) (A) (A) (A) (A) (A) (A) (A) (A) (A) (A) (A)
                 (A) (A) (A) (A) (A) (A) (A) (A) (A) (A) (A) (A)
                 (A) (A) (A) (A) (A) (A) (A) (A) (A) (A) (A) (A)
                 (A) (A) (A) (A) (A) (A) (A) (A) (A) (A) (A) (A)
                 (A) (A) (A) (A) (A) (A) (A) (A) (A) (A) (A) (A)
                 (A) (A) (A) (A) (A) (A) (A) (A) (A) (A) (A) (A)
                 (A) (A) (A) (A) (A) (A) (A) (A) (A) (A) (A) (A)
                 (A) (A) (A) (A) (A) (A) (A) (A) (A) (A) (A) (A)
                 (A) (A) (A) (A) (A) (A) (A) (A) (A) (A) (A) (A)
                 (A) (A) (A) (A) (A) (A) (A) (A) (A) (A) (A) (A)
                 (A) (A) (A) (A) (A) (A) (A) (A) (A) (A) (A) (A)
                 (A) (A) (A) (A) (A) (A) (A) (A) (A) (A) (A) (A)
                 (A) (A) (A) (A) (A) (A) (A) (A) (A) (A) (A) (A)
                 (A) (A) (A) (A) (A) (A) (A) (A) (A) (A) (A) (A)
                 (A) (A) (A) (A) (A) (A) (A) (A) (A) (A) (A) (A)
                 (A) (A) (A) (A) (A) (A) (A) (A) (A) (A) (A) (A)
                 (A) (A) (A) (A) (A) (A) (A) (A) (A) (A) (A) (A)
                 (A) (A) (A) (A) (A) (A) (A) (A) (A) (A) (A) (A)
                 (A) (A) (A) (A) (A) (A) (A) (A) (A) (A) (A) (A)
                 (A) (A) (A) (A) (A) (A) (A) (A) (A) (A) (A) (A)
                 (A) (A) (A) (A) (A) (A) (A) (A) (A) (A) (A) (A)
                 (A) (A) (A) (A) (A) (A) (A) (A) (A) (A) (A) (A)
                 (A) (A) (A) (A) (A) (A) (A) (A) (A) (A) (A) (A)
                 (A) (A) (A) (A) (A) (A) (A) (A) (A) (A) (A) (A)
                 (A) (A) (A) (A) (A) (A) (A) (A) (A) (A) (A) (A)
                 (A) (A) (A) (A) (A) (A) (A) (A) (A) (A) (A) (A)
                 (A) (A) (A) (A) (A) (A) (A) (A) (A) (A) (A) (A)
                 (A) (A) (A) (A) (A) (A) (A) (A) (A) (A) (A) (A)
                 (A) (A) (A) (A) (A) (A) (A) (A) (A) (A) (A) (A)
                 (A) (A) (A) (A) (A) (A) (A) (A) (A) (A) (A) (A)
                 (A) (A) (A) (A) (A) (A) (A) (A) (A) (A) (A) (A)
                 (A) (A) (A) (A) (A) (A) (A) (A) (A) (A) (A) (A)
                 (A) (A) (A) (A) (A) (A) (A) (A) (A) (A) (A) (A)
                 (A) (A) (A) (A) (A) (A) (A) (A) (A) (A) (A) (A)
                 (A) (A) (A) (A) (A) (A) (A) (A) (A) (A) (A) (A)
                 (A) (A) (A) (A) (A) (A) (A) (A) (A) (A) (A) (A)
                 (A) (A) (A) (A) (A) (A) (A) (A) (A) (A) (A) (A)
                 (A) (A) (A) (A) (A) (A) (A) (A) (A) (A) (A) (A)
                 (A) (A) (A) (A) (A) (A) (A) (A) (A) (A) (A) (A)
                 (A) (A) (A) (A) (A) (A) (A) (A) (A) (A) (A) (A)
                 (A) (A) (A) (A) (A) (A) (A) (A) (A) (A) (A) (A)
                 (A) (A) (A) (A) (A) (A) (A) (A) (A) (A) (A) (A)
                 (A) (A) (A) (A) (A) (A) (A) (A) (A) (A) (A) (A)
                 (A) (A) (A) (A) (A) (A) (A) (A) (A) (A) (A) (A)
                 (A) (A) (A) (A) (A) (A) (A) (A) (A) (A) (A) (A)
                 (A) (A) (A) (A) (A) (A) (A) (A) (A) (A) (A) (A)
                 (A) (A) (A) (A) (A) (A) (A) (A) (A) (A) (A) (A)
                 (A) (A) (A) (A) (A) (A) (A) (A) (A) (A) (A) (A)
                 (A) (A) (A) (A) (A) (A) (A) (A) (A) (A) (A) (A)
                 (A) (A) (A) (A) (A) (A) (A) (A) (A) (A) (A) (A)
                 (A) (A) (A) (A) (A) (A) (A) (A) (A) (A) (A) (A)
                 (A) (A) (A) (A) (A) (A) (A) (A) (A) (A) (A) (A)
                 (A) (A) (A) (A) (A) (A) (A) (A) (A) (A) (A) (A)
                 (A) (A) (A) (A) (A) (A) (A) (A) (A) (A) (A) (A)
                 (A) (A) (A) (A) (A) (A) (A) (A) (A) (A) (A) (A)
                 (A) (A) (A) (A) (A) (A) (A) (A) (A) (A) (A) (A)
                 (A) (A) (A) (A) (A) (A) (A) (A) (A) (A) (A) (A)
                 (A) (A) (A) (A) (A) (A) (A) (A) (A) (A) (A) (A)
                 (A) (A) (A) (A) (A) (A) (A) (A) (A) (A) (A) (A)
                 (A) (A) (A) (A) (A) (A) (A) (A) (A) (A) (A) (A)
                 (A) (A) (A) (A) (A) (A) (A) (A) (A) (A) (A) (A)
                 (A) (A) (A) (A) (A) (A) (A) (A) (A) (A) (A) (A)
                 (A) (A) (A) (A) (A) (A) (A) (A) (A) (A) (A) (A)
                 (A) (A) (A) (A) (A) (A) (A) (A) (A) (A) (A) (A)
                 (A) (A) (A) (A) (A) (A) (A) (A) (A) (A) (A) (A)
                 (A) (A) (A) (A) (A) (A) (A) (A) (A) (A) (A) (A)
                 (A) (A) (A) (A) (A) (A) (A) (A) (A) (A) (A) (A)
                 (A) (A) (A) (A) (A) (A) (A) (A) (A) (A) (A) (A)
                 (A) (A) (A) (A) (A) (A) (A) (A) (A) (A) (A) (A)
                 (A) (A) (A) (A) (A) (A) (A) (A) (A) (A) (A) (A)
                 (A) (A) (A) (A) (A) (A) (A) (A) (A) (A) (A) (A)
                 (A) (A) (A) (A) (A) (A) (A) (A) (A) (A) (A) (A)
                 (A) (A) (A) (A) (A) (A) (A) (A) (A) (A) (A) (A)
                 (A) (A) (A) (A) (A) (A) (A) (A) (A) (A) (A) (A)
                 (A) (A) (A) (A) (A) (A) (A) (A) (A) (A) (A) (A)
                 (A) (A) (A) (A) (A) (A) (A) (A) (A) (A) (A) (A)
                 (A) (A) (A) (A) (A) (A) (A) (A) (A) (A) (A) (A)
                 (A) (A) (A) (A) (A) (A) (A) (A) (A) (A) (A) (A)
                 (A) (A) (A) (A) (A) (A) (A) (A) (A) (A) (A) (A)
                 (A) (A) (A) (A) (A) (A) (A) (A) (A) (A) (A) (A)
                 (A) (A) (A) (A) (A) (A) (A) (A) (A) (A) (A) (A)
                 (A) (A) (A) (A) (A) (A) (A) (A) (A) (A) (A) (A)
                 (A) (A) (A) (A) (A) (A) (A) (A) (A) (A) (A) (A)
                 (A) (A) (A) (A) (A) (A) (A) (A) (A) (A) (A) (A)
                 (A) (A) (A) (A) (A) (A) (A) (A) (A) (A) (A) (A)
                 (A) (A) (A) (A) (A) (A) (A) (A) (A) (A) (A) (A)
                 (A) (A) (A) (A) (A) (A) (A) (A) (A) (A) (A) (A)
                 (A) (A) (A) (A) (A) (A) (A) (A) (A) (A) (A) (A)
                 (A) (A) (A) (A) (A) (A) (A) (A) (A) (A) (A) (A)
                 (A) (A) (A) (A) (A) (A) (A) (A) (A) (A) (A) (A)
                 (A) (A) (A) (A) (A) (A) (A) (A) (A) (A) (A) (A)
                 (A) (A) (A) (A) (A) (A) (A) (A) (A) (A) (A) (A)
                 (A) (A) (A) (A) (A) (A) (A) (A) (A) (A) (A) (A)
                 (A) (A) (A) (A) (A) (A) (A) (A) (A) (A) (A) (A)
                 (A) (A) (A) (A) (A) (A) (A) (A) (A) (A) (A) (A)
                 (A) (A) (A) (A) (A) (A) (A) (A) (A) (A) (A) (A)
                 (A) (A) (A) (A) (A) (A) (A) (A) (A) (A) (A) (A)
                 (A) (A) (A) (A) (A) (A) (A) (A) (A) (A) (A) (A)
                 (A) (A) (A) (A) (A) (A) (A) (A) (A) (A) (A) (A)
                 (A) (A) (A) (A) (A) (A) (A) (A) (A) (A) (A) (A)
                 (A) (A) (A) (A) (A) (A) (A) (A) (A) (A) (A) (A)
                 (A) (A) (A) (A) (A) (A) (A) (A) (A) (A) (A) (A)
                 (A) (A) (A) (A) (A) (A) (A) (A) (A) (A) (A) (A)
                 (A) (A) (A) (A) (A) (A) (A) (A) (A) (A) (A) (A)
                 (A) (A) (A) (A) (A) (A) (A) (A) (A) (A) (A) (A)
                 (A) (A) (A) (A) (A) (A) (A) (A) (A) (A) (A) (A)
                 (A) (A) (A) (A) (A) (A) (A) (A) (A) (A) (A) (A)
                 (A) (A) (A) (A) (A) (A) (A) (A) (A) (A) (A) (A)
                 (A) (A) (A) (A) (A) (A) (A) (A) (A) (A) (A) (A)
                 (A) (A) (A) (A) (A) (A) (A) (A) (A) (A) (A) (A)
                 (A) (A) (A) (A) (A) (A) (A) (A) (A) (A) (A) (A)
                 (A) (A) (A) (A) (A) (A) (A) (A) (A) (A) (A) (A)
                 (A) (A) (A) (A) (A) (A) (A) (A) (A) (A) (A)
 Beta  Orbitals:
       Occupied  (A) (A) (A) (A) (A) (A) (A) (A) (A) (A) (A) (A)
                 (A) (A) (A) (A) (A) (A) (A) (A) (A) (A) (A) (A)
                 (A) (A) (A) (A) (A) (A) (A) (A) (A) (A) (A) (A)
                 (A) (A) (A) (A) (A) (A) (A) (A) (A) (A) (A) (A)
                 (A) (A) (A) (A) (A) (A) (A) (A) (A) (A) (A) (A)
                 (A) (A) (A) (A) (A) (A) (A) (A) (A) (A) (A) (A)
                 (A) (A) (A) (A) (A) (A) (A) (A) (A) (A) (A) (A)
                 (A) (A) (A) (A) (A) (A) (A) (A) (A) (A) (A) (A)
                 (A) (A) (A) (A) (A) (A) (A) (A) (A) (A) (A) (A)
                 (A) (A) (A) (A) (A) (A) (A) (A) (A) (A) (A) (A)
                 (A) (A) (A) (A) (A) (A) (A) (A) (A) (A) (A) (A)
                 (A) (A) (A) (A) (A) (A) (A) (A) (A) (A) (A) (A)
                 (A) (A) (A) (A) (A) (A) (A) (A) (A) (A) (A) (A)
                 (A) (A) (A) (A) (A) (A) (A) (A) (A) (A) (A) (A)
                 (A) (A) (A) (A) (A) (A) (A) (A) (A) (A) (A) (A)
                 (A) (A) (A) (A) (A) (A) (A)
       Virtual   (A) (A) (A) (A) (A) (A) (A) (A) (A) (A) (A) (A)
                 (A) (A) (A) (A) (A) (A) (A) (A) (A) (A) (A) (A)
                 (A) (A) (A) (A) (A) (A) (A) (A) (A) (A) (A) (A)
                 (A) (A) (A) (A) (A) (A) (A) (A) (A) (A) (A) (A)
                 (A) (A) (A) (A) (A) (A) (A) (A) (A) (A) (A) (A)
                 (A) (A) (A) (A) (A) (A) (A) (A) (A) (A) (A) (A)
                 (A) (A) (A) (A) (A) (A) (A) (A) (A) (A) (A) (A)
                 (A) (A) (A) (A) (A) (A) (A) (A) (A) (A) (A) (A)
                 (A) (A) (A) (A) (A) (A) (A) (A) (A) (A) (A) (A)
                 (A) (A) (A) (A) (A) (A) (A) (A) (A) (A) (A) (A)
                 (A) (A) (A) (A) (A) (A) (A) (A) (A) (A) (A) (A)
                 (A) (A) (A) (A) (A) (A) (A) (A) (A) (A) (A) (A)
                 (A) (A) (A) (A) (A) (A) (A) (A) (A) (A) (A) (A)
                 (A) (A) (A) (A) (A) (A) (A) (A) (A) (A) (A) (A)
                 (A) (A) (A) (A) (A) (A) (A) (A) (A) (A) (A) (A)
                 (A) (A) (A) (A) (A) (A) (A) (A) (A) (A) (A) (A)
                 (A) (A) (A) (A) (A) (A) (A) (A) (A) (A) (A) (A)
                 (A) (A) (A) (A) (A) (A) (A) (A) (A) (A) (A) (A)
                 (A) (A) (A) (A) (A) (A) (A) (A) (A) (A) (A) (A)
                 (A) (A) (A) (A) (A) (A) (A) (A) (A) (A) (A) (A)
                 (A) (A) (A) (A) (A) (A) (A) (A) (A) (A) (A) (A)
                 (A) (A) (A) (A) (A) (A) (A) (A) (A) (A) (A) (A)
                 (A) (A) (A) (A) (A) (A) (A) (A) (A) (A) (A) (A)
                 (A) (A) (A) (A) (A) (A) (A) (A) (A) (A) (A) (A)
                 (A) (A) (A) (A) (A) (A) (A) (A) (A) (A) (A) (A)
                 (A) (A) (A) (A) (A) (A) (A) (A) (A) (A) (A) (A)
                 (A) (A) (A) (A) (A) (A) (A) (A) (A) (A) (A) (A)
                 (A) (A) (A) (A) (A) (A) (A) (A) (A) (A) (A) (A)
                 (A) (A) (A) (A) (A) (A) (A) (A) (A) (A) (A) (A)
                 (A) (A) (A) (A) (A) (A) (A) (A) (A) (A) (A) (A)
                 (A) (A) (A) (A) (A) (A) (A) (A) (A) (A) (A) (A)
                 (A) (A) (A) (A) (A) (A) (A) (A) (A) (A) (A) (A)
                 (A) (A) (A) (A) (A) (A) (A) (A) (A) (A) (A) (A)
                 (A) (A) (A) (A) (A) (A) (A) (A) (A) (A) (A) (A)
                 (A) (A) (A) (A) (A) (A) (A) (A) (A) (A) (A) (A)
                 (A) (A) (A) (A) (A) (A) (A) (A) (A) (A) (A) (A)
                 (A) (A) (A) (A) (A) (A) (A) (A) (A) (A) (A) (A)
                 (A) (A) (A) (A) (A) (A) (A) (A) (A) (A) (A) (A)
                 (A) (A) (A) (A) (A) (A) (A) (A) (A) (A) (A) (A)
                 (A) (A) (A) (A) (A) (A) (A) (A) (A) (A) (A) (A)
                 (A) (A) (A) (A) (A) (A) (A) (A) (A) (A) (A) (A)
                 (A) (A) (A) (A) (A) (A) (A) (A) (A) (A) (A) (A)
                 (A) (A) (A) (A) (A) (A) (A) (A) (A) (A) (A) (A)
                 (A) (A) (A) (A) (A) (A) (A) (A) (A) (A) (A) (A)
                 (A) (A) (A) (A) (A) (A) (A) (A) (A) (A) (A) (A)
                 (A) (A) (A) (A) (A) (A) (A) (A) (A) (A) (A) (A)
                 (A) (A) (A) (A) (A) (A) (A) (A) (A) (A) (A) (A)
                 (A) (A) (A) (A) (A) (A) (A) (A) (A) (A) (A) (A)
                 (A) (A) (A) (A) (A) (A) (A) (A) (A) (A) (A) (A)
                 (A) (A) (A) (A) (A) (A) (A) (A) (A) (A) (A) (A)
                 (A) (A) (A) (A) (A) (A) (A) (A) (A) (A) (A) (A)
                 (A) (A) (A) (A) (A) (A) (A) (A) (A) (A) (A) (A)
                 (A) (A) (A) (A) (A) (A) (A) (A) (A) (A) (A) (A)
                 (A) (A) (A) (A) (A) (A) (A) (A) (A) (A) (A) (A)
                 (A) (A) (A) (A) (A) (A) (A) (A) (A) (A) (A) (A)
                 (A) (A) (A) (A) (A) (A) (A) (A) (A) (A) (A) (A)
                 (A) (A) (A) (A) (A) (A) (A) (A) (A) (A) (A) (A)
                 (A) (A) (A) (A) (A) (A) (A) (A) (A) (A) (A) (A)
                 (A) (A) (A) (A) (A) (A) (A) (A) (A) (A) (A) (A)
                 (A) (A) (A) (A) (A) (A) (A) (A) (A) (A) (A) (A)
                 (A) (A) (A) (A) (A) (A) (A) (A) (A) (A) (A) (A)
                 (A) (A) (A) (A) (A) (A) (A) (A) (A) (A) (A) (A)
                 (A) (A) (A) (A) (A) (A) (A) (A) (A) (A) (A) (A)
                 (A) (A) (A) (A) (A) (A) (A) (A) (A) (A) (A) (A)
                 (A) (A) (A) (A) (A) (A) (A) (A) (A) (A) (A) (A)
                 (A) (A) (A) (A) (A) (A) (A) (A) (A) (A) (A) (A)
                 (A) (A) (A) (A) (A) (A) (A) (A) (A) (A) (A) (A)
                 (A) (A) (A) (A) (A) (A) (A) (A) (A) (A) (A) (A)
                 (A) (A) (A) (A) (A) (A) (A) (A) (A) (A) (A) (A)
                 (A) (A) (A) (A) (A) (A) (A) (A) (A) (A) (A) (A)
                 (A) (A) (A) (A) (A) (A) (A) (A) (A) (A) (A) (A)
                 (A) (A) (A) (A) (A) (A) (A) (A) (A) (A) (A) (A)
                 (A) (A) (A) (A) (A) (A) (A) (A) (A) (A) (A) (A)
                 (A) (A) (A) (A) (A) (A) (A) (A) (A) (A) (A) (A)
                 (A) (A) (A) (A) (A) (A) (A) (A) (A) (A) (A) (A)
                 (A) (A) (A) (A) (A) (A) (A) (A) (A) (A) (A) (A)
                 (A) (A) (A) (A) (A) (A) (A) (A) (A) (A) (A) (A)
                 (A) (A) (A) (A) (A) (A) (A) (A) (A) (A) (A) (A)
                 (A) (A) (A) (A) (A) (A) (A) (A) (A) (A) (A) (A)
                 (A) (A) (A) (A) (A) (A) (A) (A) (A) (A) (A) (A)
                 (A) (A) (A) (A) (A) (A) (A) (A) (A) (A) (A) (A)
                 (A) (A) (A) (A) (A) (A) (A) (A) (A) (A) (A) (A)
                 (A) (A) (A) (A) (A) (A) (A) (A) (A) (A) (A) (A)
                 (A) (A) (A) (A) (A) (A) (A) (A) (A) (A) (A) (A)
                 (A) (A) (A) (A) (A) (A) (A) (A) (A) (A) (A) (A)
                 (A) (A) (A) (A) (A) (A) (A) (A) (A) (A) (A) (A)
                 (A) (A) (A) (A) (A) (A) (A) (A) (A) (A) (A) (A)
                 (A) (A) (A) (A) (A) (A) (A) (A) (A) (A) (A) (A)
                 (A) (A) (A) (A) (A) (A) (A) (A) (A) (A) (A) (A)
                 (A) (A) (A) (A) (A) (A) (A) (A) (A) (A) (A) (A)
                 (A) (A) (A) (A) (A) (A) (A) (A) (A) (A) (A) (A)
                 (A) (A) (A) (A) (A) (A) (A) (A) (A) (A) (A) (A)
                 (A) (A) (A) (A) (A) (A) (A) (A) (A) (A) (A) (A)
                 (A) (A) (A) (A) (A) (A) (A) (A) (A) (A) (A) (A)
                 (A) (A) (A) (A) (A) (A) (A) (A) (A) (A) (A) (A)
                 (A) (A) (A) (A) (A) (A) (A) (A) (A) (A) (A) (A)
                 (A) (A) (A) (A) (A) (A) (A) (A) (A) (A) (A) (A)
                 (A) (A) (A) (A) (A) (A) (A) (A) (A) (A) (A) (A)
                 (A) (A) (A) (A) (A) (A) (A) (A) (A) (A) (A) (A)
                 (A) (A) (A) (A) (A) (A) (A) (A) (A) (A) (A) (A)
                 (A) (A) (A) (A) (A) (A) (A) (A) (A) (A) (A) (A)
                 (A) (A) (A) (A) (A) (A) (A) (A) (A) (A) (A) (A)
                 (A) (A) (A) (A) (A) (A) (A) (A) (A) (A) (A) (A)
                 (A) (A) (A) (A) (A) (A) (A) (A) (A) (A) (A) (A)
                 (A) (A) (A) (A) (A) (A) (A) (A) (A) (A) (A) (A)
                 (A) (A) (A) (A) (A) (A) (A) (A) (A) (A) (A) (A)
                 (A) (A) (A) (A) (A) (A) (A) (A) (A) (A) (A) (A)
                 (A) (A) (A) (A) (A) (A) (A) (A) (A) (A) (A) (A)
                 (A) (A) (A) (A) (A) (A) (A) (A) (A) (A) (A) (A)
                 (A) (A) (A) (A) (A) (A) (A) (A) (A) (A) (A) (A)
                 (A) (A) (A) (A) (A) (A) (A) (A) (A) (A) (A) (A)
                 (A) (A) (A) (A) (A) (A) (A) (A) (A) (A) (A) (A)
                 (A) (A) (A) (A) (A) (A) (A) (A) (A) (A) (A) (A)
                 (A) (A) (A) (A) (A) (A) (A) (A) (A) (A) (A) (A)
                 (A) (A) (A) (A) (A) (A) (A) (A) (A) (A) (A) (A)
                 (A) (A) (A) (A) (A) (A) (A) (A) (A) (A) (A) (A)
                 (A) (A) (A) (A) (A) (A) (A) (A) (A) (A) (A) (A)
                 (A) (A) (A) (A) (A) (A) (A) (A) (A) (A) (A) (A)
                 (A) (A) (A) (A) (A) (A) (A) (A) (A) (A) (A) (A)
                 (A) (A) (A) (A) (A) (A) (A) (A) (A) (A) (A) (A)
                 (A) (A) (A) (A) (A) (A) (A) (A) (A) (A) (A) (A)
                 (A) (A) (A) (A) (A) (A) (A) (A) (A) (A) (A) (A)
                 (A) (A) (A) (A) (A) (A) (A) (A) (A) (A) (A) (A)
                 (A) (A) (A) (A) (A) (A) (A) (A) (A) (A) (A) (A)
                 (A) (A) (A) (A) (A) (A) (A) (A) (A) (A) (A) (A)
                 (A) (A) (A) (A) (A) (A) (A) (A) (A) (A) (A) (A)
                 (A) (A) (A) (A) (A) (A) (A) (A) (A) (A) (A) (A)
                 (A) (A) (A) (A) (A) (A) (A) (A) (A) (A) (A) (A)
                 (A) (A) (A) (A) (A) (A) (A) (A) (A) (A) (A) (A)
                 (A) (A) (A) (A) (A) (A) (A) (A) (A) (A) (A) (A)
                 (A) (A) (A) (A) (A) (A) (A) (A) (A) (A) (A) (A)
                 (A) (A) (A) (A) (A) (A) (A) (A) (A) (A) (A) (A)
                 (A) (A) (A) (A) (A) (A) (A) (A) (A) (A) (A) (A)
                 (A) (A) (A) (A) (A) (A) (A) (A) (A) (A) (A) (A)
                 (A) (A) (A) (A) (A) (A) (A) (A) (A) (A) (A) (A)
                 (A) (A) (A) (A) (A) (A) (A) (A) (A) (A) (A) (A)
                 (A) (A) (A) (A)
 The electronic state is 6-A.
 Alpha  occ. eigenvalues -- -256.53592 -30.34676 -26.17897 -26.16382 -26.15535
 Alpha  occ. eigenvalues --  -19.42714 -19.35597 -19.33498 -19.26368 -19.26253
 Alpha  occ. eigenvalues --  -14.54584 -14.51314 -14.50348 -14.48874 -14.48850
 Alpha  occ. eigenvalues --  -14.48839 -10.47030 -10.43954 -10.43343 -10.38578
 Alpha  occ. eigenvalues --  -10.36997 -10.36633 -10.36323 -10.36080 -10.36040
 Alpha  occ. eigenvalues --  -10.36026 -10.35768 -10.35588 -10.35194 -10.34392
 Alpha  occ. eigenvalues --  -10.33977 -10.33921 -10.33877 -10.33616 -10.33483
 Alpha  occ. eigenvalues --  -10.33374 -10.33121 -10.32747 -10.32634 -10.32615
 Alpha  occ. eigenvalues --  -10.32585 -10.32548 -10.32431 -10.32215 -10.32056
 Alpha  occ. eigenvalues --  -10.31975 -10.31906 -10.31551 -10.31330 -10.31142
 Alpha  occ. eigenvalues --  -10.31002 -10.30721 -10.30390 -10.30290 -10.29811
 Alpha  occ. eigenvalues --   -3.73940  -2.53010  -2.48520  -2.47815  -1.33372
 Alpha  occ. eigenvalues --   -1.25410  -1.22410  -1.16448  -1.10997  -1.10403
 Alpha  occ. eigenvalues --   -1.09934  -1.08977  -1.08688  -1.07139  -1.02710
 Alpha  occ. eigenvalues --   -0.94951  -0.94629  -0.94146  -0.93703  -0.93005
 Alpha  occ. eigenvalues --   -0.92256  -0.91778  -0.89954  -0.89616  -0.88740
 Alpha  occ. eigenvalues --   -0.88680  -0.86593  -0.86472  -0.84428  -0.82613
 Alpha  occ. eigenvalues --   -0.82480  -0.82162  -0.81501  -0.80177  -0.79301
 Alpha  occ. eigenvalues --   -0.78913  -0.77344  -0.76525  -0.75930  -0.75384
 Alpha  occ. eigenvalues --   -0.73459  -0.72800  -0.72056  -0.71483  -0.70752
 Alpha  occ. eigenvalues --   -0.70468  -0.68794  -0.67065  -0.66695  -0.66205
 Alpha  occ. eigenvalues --   -0.65687  -0.65261  -0.63776  -0.63406  -0.63137
 Alpha  occ. eigenvalues --   -0.62935  -0.62715  -0.62169  -0.61926  -0.61902
 Alpha  occ. eigenvalues --   -0.60362  -0.59832  -0.59548  -0.58882  -0.58429
 Alpha  occ. eigenvalues --   -0.57873  -0.57737  -0.57443  -0.56806  -0.56562
 Alpha  occ. eigenvalues --   -0.56458  -0.55965  -0.55473  -0.55366  -0.55053
 Alpha  occ. eigenvalues --   -0.54785  -0.54495  -0.54329  -0.54111  -0.53794
 Alpha  occ. eigenvalues --   -0.53601  -0.53352  -0.53184  -0.52857  -0.52753
 Alpha  occ. eigenvalues --   -0.52674  -0.52404  -0.52196  -0.51992  -0.51776
 Alpha  occ. eigenvalues --   -0.51491  -0.51369  -0.51198  -0.51125  -0.50671
 Alpha  occ. eigenvalues --   -0.50288  -0.50155  -0.49966  -0.49673  -0.49538
 Alpha  occ. eigenvalues --   -0.49470  -0.49098  -0.48671  -0.48644  -0.48114
 Alpha  occ. eigenvalues --   -0.47434  -0.47340  -0.47144  -0.47000  -0.46831
 Alpha  occ. eigenvalues --   -0.46374  -0.46176  -0.45895  -0.45595  -0.45244
 Alpha  occ. eigenvalues --   -0.44562  -0.44151  -0.43917  -0.43672  -0.41551
 Alpha  occ. eigenvalues --   -0.41087  -0.40598  -0.40056  -0.39698  -0.38240
 Alpha  occ. eigenvalues --   -0.37487  -0.36357  -0.35857  -0.35127  -0.34946
 Alpha  occ. eigenvalues --   -0.34018  -0.32803  -0.31912  -0.31628  -0.30827
 Alpha  occ. eigenvalues --   -0.30645  -0.27928
 Alpha virt. eigenvalues --   -0.20387  -0.18957  -0.17679  -0.12655  -0.12256
 Alpha virt. eigenvalues --   -0.11622  -0.09654  -0.09412  -0.08582  -0.08293
 Alpha virt. eigenvalues --   -0.07855  -0.06711  -0.05690  -0.04856  -0.04104
 Alpha virt. eigenvalues --   -0.03814  -0.03669  -0.03316  -0.03135  -0.02400
 Alpha virt. eigenvalues --   -0.02268  -0.01829  -0.01265  -0.01001  -0.00799
 Alpha virt. eigenvalues --   -0.00542  -0.00068   0.00271   0.00591   0.00760
 Alpha virt. eigenvalues --    0.01037   0.01517   0.01729   0.01953   0.02172
 Alpha virt. eigenvalues --    0.02389   0.02546   0.02637   0.03267   0.03427
 Alpha virt. eigenvalues --    0.03898   0.04039   0.04316   0.04402   0.04480
 Alpha virt. eigenvalues --    0.04680   0.05036   0.05136   0.05224   0.05411
 Alpha virt. eigenvalues --    0.05455   0.05711   0.05920   0.06039   0.06265
 Alpha virt. eigenvalues --    0.06395   0.06730   0.06891   0.07128   0.07373
 Alpha virt. eigenvalues --    0.07562   0.07959   0.08264   0.08557   0.08735
 Alpha virt. eigenvalues --    0.09068   0.09235   0.09272   0.09578   0.09818
 Alpha virt. eigenvalues --    0.09885   0.10202   0.10375   0.10733   0.10960
 Alpha virt. eigenvalues --    0.11042   0.11325   0.11517   0.11984   0.12135
 Alpha virt. eigenvalues --    0.12283   0.12434   0.12536   0.12791   0.13004
 Alpha virt. eigenvalues --    0.13339   0.13442   0.13684   0.13854   0.14025
 Alpha virt. eigenvalues --    0.14405   0.14577   0.14824   0.15179   0.15326
 Alpha virt. eigenvalues --    0.15499   0.15700   0.15856   0.16131   0.16339
 Alpha virt. eigenvalues --    0.16644   0.16686   0.16934   0.17141   0.17273
 Alpha virt. eigenvalues --    0.17631   0.17971   0.18171   0.18416   0.18621
 Alpha virt. eigenvalues --    0.18993   0.19195   0.19417   0.19593   0.19817
 Alpha virt. eigenvalues --    0.19978   0.20168   0.20330   0.20653   0.20733
 Alpha virt. eigenvalues --    0.21014   0.21123   0.21706   0.21802   0.21867
 Alpha virt. eigenvalues --    0.22097   0.22536   0.22567   0.23118   0.23291
 Alpha virt. eigenvalues --    0.23606   0.23700   0.23756   0.24040   0.24276
 Alpha virt. eigenvalues --    0.24595   0.25022   0.25238   0.25380   0.25474
 Alpha virt. eigenvalues --    0.25569   0.26173   0.26445   0.26678   0.27190
 Alpha virt. eigenvalues --    0.27321   0.27407   0.27812   0.27839   0.28079
 Alpha virt. eigenvalues --    0.28396   0.28543   0.28998   0.29159   0.29297
 Alpha virt. eigenvalues --    0.29531   0.29747   0.29856   0.30192   0.30256
 Alpha virt. eigenvalues --    0.30532   0.31117   0.31206   0.31235   0.31470
 Alpha virt. eigenvalues --    0.31719   0.31816   0.31936   0.32284   0.32295
 Alpha virt. eigenvalues --    0.32458   0.32832   0.33115   0.33403   0.33524
 Alpha virt. eigenvalues --    0.33614   0.33935   0.34116   0.34400   0.34537
 Alpha virt. eigenvalues --    0.34634   0.34779   0.34988   0.35244   0.35434
 Alpha virt. eigenvalues --    0.35625   0.35856   0.35924   0.36166   0.36301
 Alpha virt. eigenvalues --    0.36447   0.36681   0.36898   0.36990   0.37303
 Alpha virt. eigenvalues --    0.37590   0.37700   0.37889   0.37995   0.38172
 Alpha virt. eigenvalues --    0.38359   0.38546   0.38907   0.38991   0.39118
 Alpha virt. eigenvalues --    0.39236   0.39602   0.39685   0.39956   0.40090
 Alpha virt. eigenvalues --    0.40184   0.40317   0.40540   0.40692   0.40770
 Alpha virt. eigenvalues --    0.41016   0.41083   0.41255   0.41609   0.41631
 Alpha virt. eigenvalues --    0.41938   0.42033   0.42279   0.42466   0.42807
 Alpha virt. eigenvalues --    0.43029   0.43308   0.43559   0.43658   0.43987
 Alpha virt. eigenvalues --    0.44112   0.44436   0.44761   0.44914   0.45341
 Alpha virt. eigenvalues --    0.45683   0.45740   0.45818   0.46064   0.46213
 Alpha virt. eigenvalues --    0.46565   0.46743   0.47207   0.47243   0.47366
 Alpha virt. eigenvalues --    0.47801   0.47865   0.48000   0.48224   0.48494
 Alpha virt. eigenvalues --    0.48600   0.48957   0.49083   0.49328   0.49464
 Alpha virt. eigenvalues --    0.49585   0.50004   0.50405   0.51066   0.51163
 Alpha virt. eigenvalues --    0.51372   0.51501   0.51656   0.51825   0.51997
 Alpha virt. eigenvalues --    0.52255   0.52341   0.52628   0.52944   0.53402
 Alpha virt. eigenvalues --    0.53491   0.53664   0.53947   0.54116   0.54419
 Alpha virt. eigenvalues --    0.54674   0.54978   0.55145   0.55408   0.55603
 Alpha virt. eigenvalues --    0.56011   0.56229   0.56303   0.56778   0.56953
 Alpha virt. eigenvalues --    0.57104   0.57444   0.57466   0.57878   0.58232
 Alpha virt. eigenvalues --    0.58372   0.58681   0.58923   0.59299   0.59508
 Alpha virt. eigenvalues --    0.59906   0.59992   0.60250   0.60662   0.60819
 Alpha virt. eigenvalues --    0.61284   0.61418   0.61667   0.61816   0.62085
 Alpha virt. eigenvalues --    0.62197   0.62677   0.62804   0.63123   0.63285
 Alpha virt. eigenvalues --    0.63741   0.64334   0.64476   0.64659   0.65068
 Alpha virt. eigenvalues --    0.65295   0.65487   0.66013   0.66138   0.66801
 Alpha virt. eigenvalues --    0.66885   0.67014   0.67397   0.67623   0.68096
 Alpha virt. eigenvalues --    0.68530   0.68666   0.68813   0.69187   0.69594
 Alpha virt. eigenvalues --    0.70088   0.70184   0.70702   0.70822   0.71107
 Alpha virt. eigenvalues --    0.71437   0.72105   0.72202   0.72422   0.72974
 Alpha virt. eigenvalues --    0.73205   0.73494   0.73640   0.74068   0.74424
 Alpha virt. eigenvalues --    0.74525   0.75099   0.75239   0.75586   0.75659
 Alpha virt. eigenvalues --    0.76079   0.76162   0.76696   0.77001   0.77423
 Alpha virt. eigenvalues --    0.77745   0.78292   0.78492   0.78670   0.78914
 Alpha virt. eigenvalues --    0.79039   0.79349   0.79826   0.80240   0.80543
 Alpha virt. eigenvalues --    0.81116   0.81319   0.81693   0.81821   0.82246
 Alpha virt. eigenvalues --    0.82421   0.82911   0.83184   0.83248   0.83618
 Alpha virt. eigenvalues --    0.84212   0.84333   0.84443   0.84567   0.84962
 Alpha virt. eigenvalues --    0.85134   0.85203   0.85509   0.85797   0.85852
 Alpha virt. eigenvalues --    0.86389   0.86860   0.87136   0.87214   0.87385
 Alpha virt. eigenvalues --    0.87890   0.87997   0.88157   0.88372   0.88672
 Alpha virt. eigenvalues --    0.88899   0.88970   0.89455   0.89733   0.89867
 Alpha virt. eigenvalues --    0.90241   0.90523   0.90556   0.91090   0.91301
 Alpha virt. eigenvalues --    0.91474   0.92101   0.92223   0.92607   0.92971
 Alpha virt. eigenvalues --    0.93137   0.93368   0.93909   0.93981   0.94425
 Alpha virt. eigenvalues --    0.94504   0.94981   0.95619   0.96020   0.96137
 Alpha virt. eigenvalues --    0.96403   0.97274   0.97709   0.97828   0.98024
 Alpha virt. eigenvalues --    0.98439   0.98843   0.98922   0.99508   0.99687
 Alpha virt. eigenvalues --    0.99979   1.00080   1.00406   1.00862   1.00937
 Alpha virt. eigenvalues --    1.01409   1.02048   1.02355   1.02503   1.02888
 Alpha virt. eigenvalues --    1.03249   1.03623   1.04193   1.04536   1.05226
 Alpha virt. eigenvalues --    1.05371   1.05614   1.05893   1.06227   1.06696
 Alpha virt. eigenvalues --    1.07156   1.07197   1.07709   1.07949   1.08289
 Alpha virt. eigenvalues --    1.08570   1.09070   1.09422   1.09835   1.10115
 Alpha virt. eigenvalues --    1.10527   1.10858   1.11423   1.11580   1.11982
 Alpha virt. eigenvalues --    1.12398   1.12810   1.13484   1.13828   1.14161
 Alpha virt. eigenvalues --    1.14529   1.14760   1.14948   1.15568   1.15893
 Alpha virt. eigenvalues --    1.16151   1.16374   1.16799   1.16847   1.17378
 Alpha virt. eigenvalues --    1.17533   1.17697   1.18116   1.18385   1.18496
 Alpha virt. eigenvalues --    1.19242   1.19536   1.19904   1.20523   1.20804
 Alpha virt. eigenvalues --    1.21259   1.22085   1.22171   1.22481   1.22934
 Alpha virt. eigenvalues --    1.23696   1.23808   1.24109   1.24664   1.24764
 Alpha virt. eigenvalues --    1.24896   1.25076   1.25333   1.26443   1.26951
 Alpha virt. eigenvalues --    1.27073   1.27236   1.27925   1.28232   1.28657
 Alpha virt. eigenvalues --    1.29235   1.29761   1.29936   1.30222   1.30453
 Alpha virt. eigenvalues --    1.30628   1.31138   1.31622   1.32131   1.32348
 Alpha virt. eigenvalues --    1.33092   1.33293   1.33383   1.33522   1.34604
 Alpha virt. eigenvalues --    1.34801   1.35695   1.36436   1.36579   1.36736
 Alpha virt. eigenvalues --    1.37144   1.37405   1.38063   1.38192   1.38423
 Alpha virt. eigenvalues --    1.38700   1.39157   1.39360   1.39603   1.39981
 Alpha virt. eigenvalues --    1.40412   1.40656   1.41333   1.41398   1.41946
 Alpha virt. eigenvalues --    1.42053   1.42532   1.42893   1.43023   1.43315
 Alpha virt. eigenvalues --    1.43902   1.44163   1.44456   1.44550   1.44746
 Alpha virt. eigenvalues --    1.45209   1.45471   1.45701   1.45924   1.46010
 Alpha virt. eigenvalues --    1.46240   1.46736   1.46830   1.47223   1.47405
 Alpha virt. eigenvalues --    1.47852   1.47981   1.48118   1.48497   1.48664
 Alpha virt. eigenvalues --    1.48993   1.49291   1.49544   1.49782   1.49893
 Alpha virt. eigenvalues --    1.50371   1.50778   1.50977   1.51340   1.51624
 Alpha virt. eigenvalues --    1.51756   1.51928   1.52202   1.52427   1.52962
 Alpha virt. eigenvalues --    1.53220   1.53599   1.53937   1.54108   1.54244
 Alpha virt. eigenvalues --    1.54456   1.54569   1.54767   1.55122   1.55186
 Alpha virt. eigenvalues --    1.55745   1.55974   1.56149   1.56519   1.56930
 Alpha virt. eigenvalues --    1.57206   1.57482   1.57861   1.57970   1.58166
 Alpha virt. eigenvalues --    1.58693   1.58859   1.59032   1.59386   1.59709
 Alpha virt. eigenvalues --    1.59969   1.60479   1.60958   1.61330   1.61593
 Alpha virt. eigenvalues --    1.61877   1.62128   1.62486   1.62803   1.62937
 Alpha virt. eigenvalues --    1.63461   1.63890   1.63987   1.64136   1.64400
 Alpha virt. eigenvalues --    1.64806   1.65439   1.65588   1.65727   1.66281
 Alpha virt. eigenvalues --    1.66399   1.66792   1.67336   1.67429   1.67536
 Alpha virt. eigenvalues --    1.68271   1.68728   1.68977   1.69319   1.69853
 Alpha virt. eigenvalues --    1.70260   1.70999   1.71403   1.71795   1.72288
 Alpha virt. eigenvalues --    1.72860   1.73615   1.73743   1.73978   1.74509
 Alpha virt. eigenvalues --    1.75196   1.75364   1.75968   1.76067   1.76643
 Alpha virt. eigenvalues --    1.76815   1.77272   1.77553   1.77813   1.77971
 Alpha virt. eigenvalues --    1.78583   1.78974   1.79147   1.79296   1.79991
 Alpha virt. eigenvalues --    1.80233   1.80402   1.80942   1.81313   1.81731
 Alpha virt. eigenvalues --    1.82161   1.82208   1.82651   1.83263   1.83551
 Alpha virt. eigenvalues --    1.83636   1.84068   1.84547   1.85288   1.85703
 Alpha virt. eigenvalues --    1.85861   1.86154   1.86645   1.87144   1.87492
 Alpha virt. eigenvalues --    1.87668   1.87911   1.88130   1.88568   1.88604
 Alpha virt. eigenvalues --    1.89252   1.89366   1.89892   1.90867   1.91104
 Alpha virt. eigenvalues --    1.91496   1.91795   1.92223   1.92685   1.93067
 Alpha virt. eigenvalues --    1.93875   1.93994   1.94282   1.94382   1.94427
 Alpha virt. eigenvalues --    1.95251   1.95831   1.96195   1.96553   1.97278
 Alpha virt. eigenvalues --    1.97523   1.97889   1.98397   1.98688   1.99284
 Alpha virt. eigenvalues --    1.99446   2.00078   2.00443   2.00681   2.01326
 Alpha virt. eigenvalues --    2.01715   2.01875   2.02003   2.02252   2.02551
 Alpha virt. eigenvalues --    2.02733   2.03210   2.03332   2.03983   2.04282
 Alpha virt. eigenvalues --    2.04628   2.05066   2.05176   2.05797   2.05925
 Alpha virt. eigenvalues --    2.06574   2.06722   2.06992   2.07100   2.07897
 Alpha virt. eigenvalues --    2.08384   2.08628   2.09131   2.09272   2.09596
 Alpha virt. eigenvalues --    2.09718   2.10307   2.11098   2.11290   2.11566
 Alpha virt. eigenvalues --    2.12618   2.12675   2.13006   2.13333   2.14046
 Alpha virt. eigenvalues --    2.14103   2.15118   2.15259   2.15789   2.16189
 Alpha virt. eigenvalues --    2.16760   2.16996   2.17411   2.17834   2.18338
 Alpha virt. eigenvalues --    2.18608   2.18965   2.19245   2.19468   2.19993
 Alpha virt. eigenvalues --    2.20415   2.20710   2.21373   2.21469   2.22120
 Alpha virt. eigenvalues --    2.22416   2.22676   2.22961   2.23234   2.23776
 Alpha virt. eigenvalues --    2.24484   2.24979   2.25545   2.25930   2.26614
 Alpha virt. eigenvalues --    2.26759   2.27562   2.27727   2.28307   2.28893
 Alpha virt. eigenvalues --    2.29205   2.29323   2.29656   2.30048   2.30507
 Alpha virt. eigenvalues --    2.30628   2.31072   2.31397   2.31825   2.32070
 Alpha virt. eigenvalues --    2.32121   2.32655   2.32831   2.32991   2.33583
 Alpha virt. eigenvalues --    2.34091   2.34505   2.34868   2.35282   2.35748
 Alpha virt. eigenvalues --    2.35908   2.36233   2.36756   2.37039   2.37482
 Alpha virt. eigenvalues --    2.37775   2.37848   2.39024   2.39277   2.39677
 Alpha virt. eigenvalues --    2.39834   2.40188   2.40627   2.41601   2.42003
 Alpha virt. eigenvalues --    2.42792   2.43324   2.43608   2.44051   2.44304
 Alpha virt. eigenvalues --    2.44515   2.44894   2.45449   2.46055   2.46097
 Alpha virt. eigenvalues --    2.46266   2.46466   2.47310   2.47676   2.47941
 Alpha virt. eigenvalues --    2.48191   2.48319   2.48989   2.49296   2.49739
 Alpha virt. eigenvalues --    2.49897   2.50140   2.50482   2.50653   2.51077
 Alpha virt. eigenvalues --    2.51507   2.51891   2.52075   2.52251   2.52464
 Alpha virt. eigenvalues --    2.53128   2.53251   2.53379   2.53701   2.53925
 Alpha virt. eigenvalues --    2.54264   2.54679   2.54789   2.55126   2.55995
 Alpha virt. eigenvalues --    2.56021   2.56390   2.56639   2.56847   2.57289
 Alpha virt. eigenvalues --    2.57972   2.58224   2.58609   2.58743   2.59148
 Alpha virt. eigenvalues --    2.59596   2.59741   2.60181   2.60579   2.60701
 Alpha virt. eigenvalues --    2.60854   2.61234   2.61635   2.61975   2.62151
 Alpha virt. eigenvalues --    2.62673   2.62705   2.63378   2.63577   2.63807
 Alpha virt. eigenvalues --    2.63878   2.64712   2.64986   2.65750   2.66048
 Alpha virt. eigenvalues --    2.66276   2.66371   2.66653   2.66975   2.67324
 Alpha virt. eigenvalues --    2.67957   2.68175   2.68420   2.68770   2.69008
 Alpha virt. eigenvalues --    2.69315   2.69564   2.70119   2.70401   2.70932
 Alpha virt. eigenvalues --    2.71511   2.71657   2.71769   2.72252   2.72606
 Alpha virt. eigenvalues --    2.73477   2.73598   2.73951   2.74399   2.74553
 Alpha virt. eigenvalues --    2.75054   2.75334   2.75738   2.75897   2.76281
 Alpha virt. eigenvalues --    2.76543   2.76727   2.77127   2.77629   2.77832
 Alpha virt. eigenvalues --    2.78327   2.78707   2.78963   2.79436   2.79892
 Alpha virt. eigenvalues --    2.80060   2.80300   2.80951   2.81369   2.81589
 Alpha virt. eigenvalues --    2.81887   2.81994   2.82439   2.82687   2.82811
 Alpha virt. eigenvalues --    2.83097   2.83409   2.83532   2.84141   2.84195
 Alpha virt. eigenvalues --    2.84660   2.84886   2.85255   2.85357   2.85609
 Alpha virt. eigenvalues --    2.85767   2.86913   2.87113   2.87292   2.87536
 Alpha virt. eigenvalues --    2.87912   2.88329   2.88436   2.88809   2.89112
 Alpha virt. eigenvalues --    2.89299   2.89516   2.89740   2.90223   2.90644
 Alpha virt. eigenvalues --    2.90865   2.91078   2.91325   2.91393   2.91691
 Alpha virt. eigenvalues --    2.92317   2.92524   2.92863   2.93248   2.93614
 Alpha virt. eigenvalues --    2.93872   2.93992   2.94571   2.94988   2.95105
 Alpha virt. eigenvalues --    2.95400   2.95646   2.95666   2.96214   2.96518
 Alpha virt. eigenvalues --    2.96938   2.97326   2.97478   2.97717   2.98109
 Alpha virt. eigenvalues --    2.98353   2.98585   2.98911   2.99228   2.99460
 Alpha virt. eigenvalues --    2.99861   3.00196   3.00650   3.00831   3.01270
 Alpha virt. eigenvalues --    3.01368   3.01566   3.02150   3.02518   3.02667
 Alpha virt. eigenvalues --    3.02912   3.02992   3.03309   3.03796   3.04127
 Alpha virt. eigenvalues --    3.04312   3.04713   3.04759   3.05124   3.05224
 Alpha virt. eigenvalues --    3.05561   3.05957   3.06182   3.06532   3.06734
 Alpha virt. eigenvalues --    3.07112   3.07245   3.07377   3.07917   3.08326
 Alpha virt. eigenvalues --    3.08488   3.08854   3.08914   3.09179   3.09624
 Alpha virt. eigenvalues --    3.09869   3.10355   3.10676   3.10918   3.11369
 Alpha virt. eigenvalues --    3.11509   3.11703   3.11897   3.11941   3.12220
 Alpha virt. eigenvalues --    3.12537   3.13111   3.13298   3.13533   3.13762
 Alpha virt. eigenvalues --    3.14152   3.14525   3.15048   3.15216   3.15432
 Alpha virt. eigenvalues --    3.15612   3.15731   3.15819   3.16226   3.16531
 Alpha virt. eigenvalues --    3.16698   3.16842   3.17159   3.17342   3.17619
 Alpha virt. eigenvalues --    3.18033   3.18391   3.18538   3.19093   3.19280
 Alpha virt. eigenvalues --    3.19314   3.19559   3.19875   3.20339   3.20485
 Alpha virt. eigenvalues --    3.20876   3.21065   3.21401   3.21512   3.21847
 Alpha virt. eigenvalues --    3.22032   3.22307   3.22446   3.22783   3.23117
 Alpha virt. eigenvalues --    3.23215   3.23611   3.23974   3.24266   3.24510
 Alpha virt. eigenvalues --    3.24671   3.24813   3.24952   3.25493   3.25955
 Alpha virt. eigenvalues --    3.26343   3.26506   3.26636   3.26889   3.27149
 Alpha virt. eigenvalues --    3.27543   3.27695   3.28010   3.28409   3.28721
 Alpha virt. eigenvalues --    3.29013   3.29061   3.29461   3.29731   3.30279
 Alpha virt. eigenvalues --    3.30636   3.30693   3.31150   3.31384   3.31575
 Alpha virt. eigenvalues --    3.31808   3.32014   3.32224   3.32675   3.33053
 Alpha virt. eigenvalues --    3.33170   3.33371   3.33936   3.34143   3.34496
 Alpha virt. eigenvalues --    3.35068   3.35265   3.35494   3.35692   3.36083
 Alpha virt. eigenvalues --    3.36337   3.36377   3.36714   3.37115   3.37512
 Alpha virt. eigenvalues --    3.37880   3.38034   3.38587   3.38716   3.39187
 Alpha virt. eigenvalues --    3.39450   3.39547   3.39689   3.40183   3.40892
 Alpha virt. eigenvalues --    3.41063   3.41298   3.41465   3.41857   3.42072
 Alpha virt. eigenvalues --    3.42382   3.42863   3.43131   3.43733   3.44230
 Alpha virt. eigenvalues --    3.44887   3.44996   3.45315   3.45890   3.46213
 Alpha virt. eigenvalues --    3.46385   3.46597   3.47165   3.47322   3.47594
 Alpha virt. eigenvalues --    3.47992   3.48397   3.48589   3.48834   3.49285
 Alpha virt. eigenvalues --    3.49758   3.49914   3.50305   3.50613   3.51015
 Alpha virt. eigenvalues --    3.51382   3.52118   3.52420   3.52650   3.53284
 Alpha virt. eigenvalues --    3.53385   3.53931   3.54383   3.54806   3.55046
 Alpha virt. eigenvalues --    3.55580   3.55736   3.56018   3.56297   3.56687
 Alpha virt. eigenvalues --    3.57287   3.57689   3.57918   3.58548   3.58818
 Alpha virt. eigenvalues --    3.59074   3.59851   3.60009   3.60494   3.60826
 Alpha virt. eigenvalues --    3.60967   3.61176   3.61825   3.62575   3.62984
 Alpha virt. eigenvalues --    3.63202   3.63512   3.63749   3.64518   3.64660
 Alpha virt. eigenvalues --    3.65270   3.65389   3.66171   3.66494   3.66911
 Alpha virt. eigenvalues --    3.67096   3.67275   3.67689   3.67704   3.68452
 Alpha virt. eigenvalues --    3.69038   3.69406   3.69823   3.70457   3.70532
 Alpha virt. eigenvalues --    3.71652   3.71999   3.72185   3.72708   3.73180
 Alpha virt. eigenvalues --    3.73508   3.74479   3.74958   3.75612   3.76144
 Alpha virt. eigenvalues --    3.76589   3.76849   3.77193   3.77907   3.78114
 Alpha virt. eigenvalues --    3.78459   3.78994   3.80163   3.80709   3.80941
 Alpha virt. eigenvalues --    3.81445   3.81750   3.82216   3.82359   3.83245
 Alpha virt. eigenvalues --    3.83515   3.83867   3.84659   3.84867   3.85310
 Alpha virt. eigenvalues --    3.86045   3.86554   3.87009   3.87783   3.88027
 Alpha virt. eigenvalues --    3.88349   3.88787   3.89760   3.89873   3.90260
 Alpha virt. eigenvalues --    3.91412   3.91835   3.92249   3.93119   3.93274
 Alpha virt. eigenvalues --    3.93469   3.93718   3.94582   3.95012   3.95658
 Alpha virt. eigenvalues --    3.96152   3.96905   3.97266   3.98243   3.99154
 Alpha virt. eigenvalues --    3.99787   4.00403   4.00838   4.01247   4.02311
 Alpha virt. eigenvalues --    4.02941   4.03013   4.03367   4.04234   4.04545
 Alpha virt. eigenvalues --    4.04935   4.05270   4.05760   4.06179   4.06822
 Alpha virt. eigenvalues --    4.07356   4.07383   4.08315   4.08738   4.08907
 Alpha virt. eigenvalues --    4.10270   4.10624   4.10790   4.11283   4.11796
 Alpha virt. eigenvalues --    4.12453   4.13095   4.13461   4.13820   4.14098
 Alpha virt. eigenvalues --    4.15043   4.15837   4.16361   4.16397   4.16633
 Alpha virt. eigenvalues --    4.17356   4.17870   4.18375   4.18432   4.19637
 Alpha virt. eigenvalues --    4.20330   4.20667   4.21051   4.21936   4.22235
 Alpha virt. eigenvalues --    4.23311   4.23604   4.23960   4.24654   4.24902
 Alpha virt. eigenvalues --    4.25754   4.26252   4.26655   4.27413   4.27791
 Alpha virt. eigenvalues --    4.28163   4.28985   4.29274   4.30550   4.30897
 Alpha virt. eigenvalues --    4.31192   4.31640   4.32194   4.32420   4.32980
 Alpha virt. eigenvalues --    4.33453   4.34098   4.34303   4.35442   4.36005
 Alpha virt. eigenvalues --    4.36350   4.36972   4.37334   4.37546   4.37989
 Alpha virt. eigenvalues --    4.38461   4.39448   4.40207   4.40776   4.41253
 Alpha virt. eigenvalues --    4.41990   4.42701   4.43275   4.43685   4.44014
 Alpha virt. eigenvalues --    4.45095   4.47055   4.47137   4.48051   4.48720
 Alpha virt. eigenvalues --    4.49819   4.50149   4.50753   4.51581   4.51867
 Alpha virt. eigenvalues --    4.52288   4.53262   4.53655   4.53984   4.54340
 Alpha virt. eigenvalues --    4.55479   4.56135   4.56581   4.57253   4.58467
 Alpha virt. eigenvalues --    4.58945   4.59122   4.60157   4.60771   4.61221
 Alpha virt. eigenvalues --    4.61783   4.62452   4.63435   4.63803   4.64479
 Alpha virt. eigenvalues --    4.65011   4.65178   4.65831   4.66176   4.66841
 Alpha virt. eigenvalues --    4.67499   4.68171   4.68597   4.69821   4.70801
 Alpha virt. eigenvalues --    4.71045   4.71678   4.71869   4.72485   4.73035
 Alpha virt. eigenvalues --    4.73869   4.75391   4.75774   4.76723   4.77119
 Alpha virt. eigenvalues --    4.77906   4.78490   4.79947   4.80391   4.80579
 Alpha virt. eigenvalues --    4.81302   4.81542   4.81874   4.83261   4.83574
 Alpha virt. eigenvalues --    4.84164   4.85349   4.85526   4.86486   4.87470
 Alpha virt. eigenvalues --    4.87807   4.88082   4.89572   4.90530   4.92613
 Alpha virt. eigenvalues --    4.93195   4.93389   4.94044   4.94348   4.95752
 Alpha virt. eigenvalues --    4.96314   4.96858   4.98196   4.98538   4.98964
 Alpha virt. eigenvalues --    4.99441   4.99626   5.00405   5.01146   5.02103
 Alpha virt. eigenvalues --    5.02500   5.05783   5.07421   5.08131   5.08788
 Alpha virt. eigenvalues --    5.09931   5.10003   5.10246   5.11448   5.11862
 Alpha virt. eigenvalues --    5.13174   5.13461   5.13871   5.14217   5.14356
 Alpha virt. eigenvalues --    5.15001   5.15884   5.16633   5.17340   5.17602
 Alpha virt. eigenvalues --    5.18789   5.19150   5.19734   5.21366   5.21405
 Alpha virt. eigenvalues --    5.22991   5.24078   5.25836   5.26564   5.27061
 Alpha virt. eigenvalues --    5.28122   5.28328   5.29276   5.30184   5.31613
 Alpha virt. eigenvalues --    5.31997   5.32475   5.33688   5.35813   5.36416
 Alpha virt. eigenvalues --    5.37966   5.38159   5.39251   5.39994   5.41376
 Alpha virt. eigenvalues --    5.41818   5.43708   5.46313   5.47793   5.48021
 Alpha virt. eigenvalues --    5.48456   5.49262   5.49570   5.50063   5.51029
 Alpha virt. eigenvalues --    5.51395   5.52423   5.53595   5.53772   5.55448
 Alpha virt. eigenvalues --    5.56699   5.56797   5.60555   5.62758   5.66508
 Alpha virt. eigenvalues --    5.67380   5.68387   5.69097   5.70771   5.72571
 Alpha virt. eigenvalues --    5.73253   5.76396   5.78630   5.79274   5.82605
 Alpha virt. eigenvalues --    5.82715   5.85408   5.86583   5.87593   5.88199
 Alpha virt. eigenvalues --    5.91384   5.93666   5.94239   5.96671   5.99352
 Alpha virt. eigenvalues --    6.00774   6.01219   6.01429   6.03376   6.04019
 Alpha virt. eigenvalues --    6.05665   6.06752   6.10302   6.15471   6.16439
 Alpha virt. eigenvalues --    6.17449   6.18184   6.20997   6.22973   6.23391
 Alpha virt. eigenvalues --    6.25157   6.25687   6.29995   6.31887   6.34980
 Alpha virt. eigenvalues --    6.35969   6.37744   6.38425   6.39873   6.43806
 Alpha virt. eigenvalues --    6.45899   6.55562   6.61383   6.64547   6.65450
 Alpha virt. eigenvalues --    6.69401   6.69585   6.72461   6.73663   6.80163
 Alpha virt. eigenvalues --    6.82748   6.85323   6.87580   6.92707   7.02474
 Alpha virt. eigenvalues --    7.03750   7.08775   7.10551   7.12458   7.17375
 Alpha virt. eigenvalues --    7.22909  22.26869  22.28961  22.40726  22.43238
 Alpha virt. eigenvalues --   22.44039  22.48587  22.49572  22.55010  22.55712
 Alpha virt. eigenvalues --   22.61600  22.63677  22.69050  22.70522  22.73798
 Alpha virt. eigenvalues --   22.79930  22.81373  22.84659  22.87125  22.89680
 Alpha virt. eigenvalues --   22.97094  22.98373  23.01548  23.09880  23.13543
 Alpha virt. eigenvalues --   23.16199  23.20813  23.22189  23.25115  23.31637
 Alpha virt. eigenvalues --   23.32846  23.35335  23.41140  23.48113  23.51185
 Alpha virt. eigenvalues --   23.51980  23.63791  23.71992  23.76410  23.86017
 Alpha virt. eigenvalues --   32.36490  32.70407  32.86711  32.88552  32.90531
 Alpha virt. eigenvalues --   33.17291  43.86732  43.87438  43.89107  43.95954
 Alpha virt. eigenvalues --   44.02226
  Beta  occ. eigenvalues -- -256.53497 -30.28409 -26.12686 -26.11052 -26.10276
  Beta  occ. eigenvalues --  -19.42766 -19.35598 -19.33497 -19.26368 -19.26253
  Beta  occ. eigenvalues --  -14.54587 -14.51422 -14.49969 -14.48705 -14.48660
  Beta  occ. eigenvalues --  -14.48467 -10.47243 -10.43954 -10.43343 -10.38575
  Beta  occ. eigenvalues --  -10.36882 -10.36767 -10.36326 -10.36035 -10.36013
  Beta  occ. eigenvalues --  -10.35974 -10.35710 -10.35547 -10.35279 -10.34493
  Beta  occ. eigenvalues --  -10.33878 -10.33620 -10.33502 -10.33441 -10.33431
  Beta  occ. eigenvalues --  -10.33083 -10.32920 -10.32724 -10.32633 -10.32585
  Beta  occ. eigenvalues --  -10.32549 -10.32527 -10.32424 -10.32210 -10.32080
  Beta  occ. eigenvalues --  -10.31916 -10.31826 -10.31552 -10.31138 -10.31001
  Beta  occ. eigenvalues --  -10.30698 -10.30390 -10.30252 -10.29906 -10.29807
  Beta  occ. eigenvalues --   -3.59034  -2.37257  -2.32308  -2.31780  -1.33499
  Beta  occ. eigenvalues --   -1.25410  -1.22409  -1.16498  -1.10996  -1.10402
  Beta  occ. eigenvalues --   -1.09660  -1.08689  -1.08343  -1.06648  -1.02793
  Beta  occ. eigenvalues --   -0.94827  -0.94042  -0.93717  -0.93119  -0.92542
  Beta  occ. eigenvalues --   -0.91963  -0.91627  -0.89952  -0.89251  -0.88607
  Beta  occ. eigenvalues --   -0.86923  -0.86375  -0.85855  -0.84020  -0.82553
  Beta  occ. eigenvalues --   -0.82173  -0.82077  -0.81340  -0.80075  -0.79232
  Beta  occ. eigenvalues --   -0.78843  -0.77183  -0.76430  -0.75822  -0.75411
  Beta  occ. eigenvalues --   -0.73408  -0.72271  -0.71543  -0.70750  -0.70572
  Beta  occ. eigenvalues --   -0.69760  -0.68451  -0.66909  -0.66664  -0.65787
  Beta  occ. eigenvalues --   -0.65150  -0.64633  -0.63652  -0.63182  -0.63014
  Beta  occ. eigenvalues --   -0.62775  -0.62551  -0.61645  -0.61561  -0.60633
  Beta  occ. eigenvalues --   -0.60193  -0.59562  -0.59200  -0.58782  -0.58321
  Beta  occ. eigenvalues --   -0.57720  -0.57557  -0.56979  -0.56572  -0.56000
  Beta  occ. eigenvalues --   -0.55496  -0.55214  -0.54905  -0.54478  -0.54287
  Beta  occ. eigenvalues --   -0.53897  -0.53872  -0.53713  -0.53511  -0.53321
  Beta  occ. eigenvalues --   -0.53038  -0.52780  -0.52621  -0.52414  -0.52220
  Beta  occ. eigenvalues --   -0.52126  -0.52010  -0.51687  -0.51328  -0.50919
  Beta  occ. eigenvalues --   -0.50830  -0.50642  -0.50527  -0.50324  -0.49911
  Beta  occ. eigenvalues --   -0.49525  -0.49335  -0.49292  -0.49047  -0.48700
  Beta  occ. eigenvalues --   -0.48285  -0.48009  -0.47828  -0.47392  -0.46975
  Beta  occ. eigenvalues --   -0.46814  -0.46758  -0.46539  -0.46080  -0.46016
  Beta  occ. eigenvalues --   -0.45625  -0.44728  -0.44123  -0.43919  -0.43763
  Beta  occ. eigenvalues --   -0.43587  -0.42477  -0.41080  -0.40594  -0.40513
  Beta  occ. eigenvalues --   -0.39352  -0.39230  -0.37680  -0.36414  -0.36306
  Beta  occ. eigenvalues --   -0.35712  -0.35460  -0.34071  -0.33824  -0.32197
  Beta  occ. eigenvalues --   -0.30218  -0.29813
  Beta virt. eigenvalues --   -0.23503  -0.19446  -0.18430  -0.17345  -0.15494
  Beta virt. eigenvalues --   -0.13747  -0.13561  -0.11910  -0.11116  -0.10335
  Beta virt. eigenvalues --   -0.09722  -0.09516  -0.09029  -0.08548  -0.08127
  Beta virt. eigenvalues --   -0.07838  -0.06261  -0.05605  -0.04801  -0.04016
  Beta virt. eigenvalues --   -0.03720  -0.03596  -0.02992  -0.02926  -0.02109
  Beta virt. eigenvalues --   -0.01950  -0.01597  -0.01022  -0.00852  -0.00586
  Beta virt. eigenvalues --   -0.00131   0.00156   0.00483   0.00787   0.00876
  Beta virt. eigenvalues --    0.01069   0.01730   0.01889   0.02038   0.02266
  Beta virt. eigenvalues --    0.02558   0.02700   0.03163   0.03374   0.03535
  Beta virt. eigenvalues --    0.04010   0.04143   0.04482   0.04512   0.04708
  Beta virt. eigenvalues --    0.04776   0.05098   0.05356   0.05483   0.05574
  Beta virt. eigenvalues --    0.05633   0.05822   0.05983   0.06298   0.06408
  Beta virt. eigenvalues --    0.06500   0.06777   0.07035   0.07250   0.07583
  Beta virt. eigenvalues --    0.07722   0.08024   0.08331   0.08621   0.08936
  Beta virt. eigenvalues --    0.09245   0.09306   0.09422   0.09741   0.10006
  Beta virt. eigenvalues --    0.10022   0.10271   0.10676   0.10885   0.11097
  Beta virt. eigenvalues --    0.11327   0.11406   0.11644   0.12082   0.12356
  Beta virt. eigenvalues --    0.12516   0.12639   0.12898   0.13071   0.13221
  Beta virt. eigenvalues --    0.13496   0.13671   0.13921   0.14130   0.14269
  Beta virt. eigenvalues --    0.14730   0.14864   0.15132   0.15342   0.15558
  Beta virt. eigenvalues --    0.15628   0.15979   0.16040   0.16289   0.16475
  Beta virt. eigenvalues --    0.16746   0.16953   0.17214   0.17580   0.17622
  Beta virt. eigenvalues --    0.18009   0.18222   0.18367   0.18869   0.18913
  Beta virt. eigenvalues --    0.19270   0.19519   0.19757   0.19952   0.20217
  Beta virt. eigenvalues --    0.20274   0.20559   0.20751   0.20894   0.21260
  Beta virt. eigenvalues --    0.21552   0.21789   0.21917   0.22004   0.22252
  Beta virt. eigenvalues --    0.22465   0.22726   0.23049   0.23494   0.23756
  Beta virt. eigenvalues --    0.23831   0.23905   0.24033   0.24268   0.24676
  Beta virt. eigenvalues --    0.25017   0.25267   0.25515   0.25672   0.25727
  Beta virt. eigenvalues --    0.26222   0.26422   0.26732   0.26949   0.27559
  Beta virt. eigenvalues --    0.27612   0.27673   0.28078   0.28196   0.28344
  Beta virt. eigenvalues --    0.28582   0.28735   0.29106   0.29343   0.29428
  Beta virt. eigenvalues --    0.29656   0.29979   0.30221   0.30397   0.30521
  Beta virt. eigenvalues --    0.30739   0.31316   0.31341   0.31483   0.31595
  Beta virt. eigenvalues --    0.31985   0.32053   0.32130   0.32378   0.32539
  Beta virt. eigenvalues --    0.32590   0.32978   0.33352   0.33476   0.33639
  Beta virt. eigenvalues --    0.33881   0.34166   0.34278   0.34531   0.34679
  Beta virt. eigenvalues --    0.34828   0.35049   0.35206   0.35524   0.35600
  Beta virt. eigenvalues --    0.35842   0.35989   0.36130   0.36504   0.36579
  Beta virt. eigenvalues --    0.36757   0.36889   0.37089   0.37460   0.37526
  Beta virt. eigenvalues --    0.37751   0.38010   0.38104   0.38134   0.38307
  Beta virt. eigenvalues --    0.38541   0.38793   0.39059   0.39169   0.39333
  Beta virt. eigenvalues --    0.39562   0.39747   0.40109   0.40178   0.40364
  Beta virt. eigenvalues --    0.40478   0.40590   0.40731   0.40858   0.41001
  Beta virt. eigenvalues --    0.41220   0.41269   0.41455   0.41772   0.42010
  Beta virt. eigenvalues --    0.42225   0.42273   0.42467   0.42823   0.43111
  Beta virt. eigenvalues --    0.43217   0.43425   0.43676   0.43874   0.44239
  Beta virt. eigenvalues --    0.44342   0.44767   0.44918   0.45066   0.45521
  Beta virt. eigenvalues --    0.45785   0.45892   0.46114   0.46198   0.46416
  Beta virt. eigenvalues --    0.46744   0.46839   0.47343   0.47458   0.47481
  Beta virt. eigenvalues --    0.48073   0.48115   0.48180   0.48368   0.48660
  Beta virt. eigenvalues --    0.48773   0.49169   0.49347   0.49581   0.49682
  Beta virt. eigenvalues --    0.49763   0.50286   0.50543   0.51220   0.51313
  Beta virt. eigenvalues --    0.51620   0.51724   0.51825   0.51967   0.52256
  Beta virt. eigenvalues --    0.52428   0.52737   0.52819   0.53124   0.53581
  Beta virt. eigenvalues --    0.53724   0.53953   0.54129   0.54387   0.54670
  Beta virt. eigenvalues --    0.54846   0.55185   0.55386   0.55641   0.55806
  Beta virt. eigenvalues --    0.56187   0.56419   0.56587   0.57025   0.57179
  Beta virt. eigenvalues --    0.57349   0.57603   0.57722   0.58134   0.58404
  Beta virt. eigenvalues --    0.58625   0.58961   0.59253   0.59509   0.59729
  Beta virt. eigenvalues --    0.60046   0.60200   0.60407   0.60930   0.61066
  Beta virt. eigenvalues --    0.61553   0.61649   0.61829   0.62041   0.62316
  Beta virt. eigenvalues --    0.62474   0.62834   0.62928   0.63302   0.63526
  Beta virt. eigenvalues --    0.64007   0.64595   0.64654   0.64965   0.65214
  Beta virt. eigenvalues --    0.65455   0.65707   0.66204   0.66312   0.67014
  Beta virt. eigenvalues --    0.67093   0.67236   0.67553   0.67745   0.68348
  Beta virt. eigenvalues --    0.68682   0.68866   0.68947   0.69341   0.69791
  Beta virt. eigenvalues --    0.70213   0.70389   0.70935   0.71005   0.71299
  Beta virt. eigenvalues --    0.71788   0.72204   0.72304   0.72646   0.73172
  Beta virt. eigenvalues --    0.73484   0.73696   0.73905   0.74314   0.74542
  Beta virt. eigenvalues --    0.74831   0.75308   0.75488   0.75669   0.75912
  Beta virt. eigenvalues --    0.76156   0.76534   0.76885   0.77180   0.77593
  Beta virt. eigenvalues --    0.77931   0.78355   0.78604   0.78871   0.79119
  Beta virt. eigenvalues --    0.79322   0.79651   0.80058   0.80500   0.80666
  Beta virt. eigenvalues --    0.81384   0.81528   0.81888   0.82088   0.82391
  Beta virt. eigenvalues --    0.82742   0.83004   0.83429   0.83695   0.83753
  Beta virt. eigenvalues --    0.84459   0.84604   0.84762   0.85033   0.85234
  Beta virt. eigenvalues --    0.85288   0.85613   0.85645   0.85958   0.86170
  Beta virt. eigenvalues --    0.86784   0.87148   0.87301   0.87541   0.87641
  Beta virt. eigenvalues --    0.88053   0.88250   0.88413   0.88619   0.88986
  Beta virt. eigenvalues --    0.89189   0.89415   0.89736   0.89898   0.90000
  Beta virt. eigenvalues --    0.90514   0.90813   0.91057   0.91352   0.91557
  Beta virt. eigenvalues --    0.91824   0.92301   0.92397   0.92852   0.93349
  Beta virt. eigenvalues --    0.93351   0.93780   0.94249   0.94383   0.94644
  Beta virt. eigenvalues --    0.94782   0.95288   0.95914   0.96378   0.96457
  Beta virt. eigenvalues --    0.96805   0.97612   0.97962   0.98053   0.98274
  Beta virt. eigenvalues --    0.98836   0.99113   0.99297   0.99828   0.99919
  Beta virt. eigenvalues --    1.00214   1.00418   1.00634   1.01047   1.01318
  Beta virt. eigenvalues --    1.01628   1.02208   1.02636   1.03027   1.03156
  Beta virt. eigenvalues --    1.03500   1.03878   1.04288   1.05122   1.05410
  Beta virt. eigenvalues --    1.05667   1.05785   1.06138   1.06482   1.07013
  Beta virt. eigenvalues --    1.07397   1.07617   1.08025   1.08209   1.08710
  Beta virt. eigenvalues --    1.09104   1.09281   1.09778   1.10198   1.10263
  Beta virt. eigenvalues --    1.10758   1.11094   1.11641   1.11824   1.12300
  Beta virt. eigenvalues --    1.12560   1.13183   1.13655   1.14204   1.14321
  Beta virt. eigenvalues --    1.14711   1.15200   1.15262   1.15807   1.16268
  Beta virt. eigenvalues --    1.16488   1.16904   1.17115   1.17209   1.17581
  Beta virt. eigenvalues --    1.17793   1.17922   1.18461   1.18609   1.18850
  Beta virt. eigenvalues --    1.19545   1.19794   1.20438   1.20759   1.21324
  Beta virt. eigenvalues --    1.21633   1.22349   1.22584   1.22698   1.23212
  Beta virt. eigenvalues --    1.23962   1.24027   1.24471   1.24874   1.25022
  Beta virt. eigenvalues --    1.25154   1.25284   1.25532   1.26751   1.27035
  Beta virt. eigenvalues --    1.27362   1.27431   1.28197   1.28476   1.28849
  Beta virt. eigenvalues --    1.29404   1.29996   1.30406   1.30485   1.30781
  Beta virt. eigenvalues --    1.30998   1.31261   1.32261   1.32418   1.32703
  Beta virt. eigenvalues --    1.33390   1.33466   1.33654   1.34511   1.34860
  Beta virt. eigenvalues --    1.35024   1.35958   1.36589   1.36763   1.36981
  Beta virt. eigenvalues --    1.37522   1.37861   1.38334   1.38494   1.38678
  Beta virt. eigenvalues --    1.38930   1.39332   1.39811   1.39939   1.40233
  Beta virt. eigenvalues --    1.40765   1.41241   1.41506   1.41656   1.42318
  Beta virt. eigenvalues --    1.42475   1.42862   1.43108   1.43309   1.43636
  Beta virt. eigenvalues --    1.44249   1.44454   1.44625   1.44917   1.45117
  Beta virt. eigenvalues --    1.45447   1.45668   1.45922   1.46232   1.46338
  Beta virt. eigenvalues --    1.46695   1.47073   1.47178   1.47326   1.47520
  Beta virt. eigenvalues --    1.48008   1.48190   1.48394   1.48719   1.49063
  Beta virt. eigenvalues --    1.49200   1.49497   1.49687   1.50075   1.50258
  Beta virt. eigenvalues --    1.50594   1.50896   1.51175   1.51493   1.51877
  Beta virt. eigenvalues --    1.52039   1.52322   1.52481   1.52765   1.53303
  Beta virt. eigenvalues --    1.53482   1.53747   1.54301   1.54375   1.54591
  Beta virt. eigenvalues --    1.54673   1.54762   1.55112   1.55248   1.55423
  Beta virt. eigenvalues --    1.56074   1.56346   1.56385   1.56856   1.57186
  Beta virt. eigenvalues --    1.57364   1.57723   1.58119   1.58446   1.58571
  Beta virt. eigenvalues --    1.58906   1.59125   1.59221   1.59598   1.59938
  Beta virt. eigenvalues --    1.60154   1.60843   1.61088   1.61625   1.61795
  Beta virt. eigenvalues --    1.62052   1.62643   1.62856   1.62987   1.63129
  Beta virt. eigenvalues --    1.63843   1.64034   1.64166   1.64308   1.64607
  Beta virt. eigenvalues --    1.65278   1.65587   1.65840   1.66206   1.66353
  Beta virt. eigenvalues --    1.66543   1.66925   1.67438   1.67544   1.67659
  Beta virt. eigenvalues --    1.68522   1.69014   1.69051   1.69569   1.70114
  Beta virt. eigenvalues --    1.70335   1.71118   1.71480   1.72022   1.72440
  Beta virt. eigenvalues --    1.72949   1.73816   1.74022   1.74219   1.75006
  Beta virt. eigenvalues --    1.75420   1.75809   1.76115   1.76171   1.76879
  Beta virt. eigenvalues --    1.77050   1.77462   1.77815   1.78013   1.78270
  Beta virt. eigenvalues --    1.78853   1.79199   1.79404   1.79685   1.80178
  Beta virt. eigenvalues --    1.80496   1.80614   1.81069   1.81463   1.81867
  Beta virt. eigenvalues --    1.82420   1.82572   1.82910   1.83387   1.83731
  Beta virt. eigenvalues --    1.83934   1.84409   1.84785   1.85492   1.85967
  Beta virt. eigenvalues --    1.86269   1.86379   1.86836   1.87521   1.87651
  Beta virt. eigenvalues --    1.87851   1.88202   1.88385   1.88735   1.88986
  Beta virt. eigenvalues --    1.89487   1.89564   1.89998   1.91047   1.91281
  Beta virt. eigenvalues --    1.91684   1.91926   1.92404   1.92799   1.93168
  Beta virt. eigenvalues --    1.93983   1.94360   1.94475   1.94731   1.95360
  Beta virt. eigenvalues --    1.95790   1.96277   1.96527   1.96740   1.97412
  Beta virt. eigenvalues --    1.97782   1.98203   1.98533   1.98909   1.99494
  Beta virt. eigenvalues --    1.99676   2.00327   2.00655   2.01071   2.01492
[...]
  1589. RY*(   5) H  65                  0.00000     2.86932   
  1590. RY*(   1) H  66                  0.00085     0.59039   
  1591. RY*(   2) H  66                  0.00013     2.16756   
  1592. RY*(   3) H  66                  0.00011     2.14164   
  1593. RY*(   4) H  66                  0.00006     2.98026   
  1594. RY*(   5) H  66                  0.00000     3.11558   
  1595. RY*(   1) H  67                  0.00021     1.80475   
  1596. RY*(   2) H  67                  0.00007     1.61087   
  1597. RY*(   3) H  67                  0.00004     2.14029   
  1598. RY*(   4) H  67                  0.00002     2.09260   
  1599. RY*(   5) H  67                  0.00000     2.99350   
  1600. RY*(   1) H  68                  0.00020     1.83653   
  1601. RY*(   2) H  68                  0.00010     0.75290   
  1602. RY*(   3) H  68                  0.00002     2.30572   
  1603. RY*(   4) H  68                  0.00001     2.28841   
  1604. RY*(   5) H  68                  0.00001     2.56230   
  1605. RY*(   1) H  69                  0.00020     1.85145   
  1606. RY*(   2) H  69                  0.00010     0.77952   
  1607. RY*(   3) H  69                  0.00002     2.43720   
  1608. RY*(   4) H  69                  0.00002     2.10977   
  1609. RY*(   5) H  69                  0.00001     2.60957   
  1610. RY*(   1) H  70                  0.00025     1.09861   
  1611. RY*(   2) H  70                  0.00007     1.57908   
  1612. RY*(   3) H  70                  0.00004     2.05488   
  1613. RY*(   4) H  70                  0.00001     1.93692   
  1614. RY*(   5) H  70                  0.00000     2.78928   
  1615. RY*(   1) H  71                  0.00020     1.22190   
  1616. RY*(   2) H  71                  0.00009     1.65383   
  1617. RY*(   3) H  71                  0.00002     1.73697   
  1618. RY*(   4) H  71                  0.00003     2.09823   
  1619. RY*(   5) H  71                  0.00000     2.82460   
  1620. RY*(   1) H  72                  0.00022     1.14420   
  1621. RY*(   2) H  72                  0.00007     1.65042   
  1622. RY*(   3) H  72                  0.00003     2.10943   
  1623. RY*(   4) H  72                  0.00002     1.82706   
  1624. RY*(   5) H  72                  0.00000     2.91927   
  1625. RY*(   1) H  73                  0.00078     0.57055   
  1626. RY*(   2) H  73                  0.00011     2.13615   
  1627. RY*(   3) H  73                  0.00011     2.17786   
  1628. RY*(   4) H  73                  0.00006     2.99639   
  1629. RY*(   5) H  73                  0.00000     3.08773   
  1630. RY*(   1) H  74                  0.00044     1.35177   
  1631. RY*(   2) H  74                  0.00010     1.57122   
  1632. RY*(   3) H  74                  0.00005     2.57648   
  1633. RY*(   4) H  74                  0.00004     1.92498   
  1634. RY*(   5) H  74                  0.00000     2.99639   
  1635. RY*(   1) H  75                  0.00033     1.48166   
  1636. RY*(   2) H  75                  0.00012     1.07496   
  1637. RY*(   3) H  75                  0.00006     1.97725   
  1638. RY*(   4) H  75                  0.00002     2.36828   
  1639. RY*(   5) H  75                  0.00001     2.93511   
  1640. RY*(   1) H  76                  0.00045     1.17335   
  1641. RY*(   2) H  76                  0.00015     1.55746   
  1642. RY*(   3) H  76                  0.00006     1.87536   
  1643. RY*(   4) H  76                  0.00003     2.35330   
  1644. RY*(   5) H  76                  0.00001     2.94755   
  1645. RY*(   1) H  77                  0.00024     0.99811   
  1646. RY*(   2) H  77                  0.00010     1.79454   
  1647. RY*(   3) H  77                  0.00003     1.90810   
  1648. RY*(   4) H  77                  0.00002     1.99797   
  1649. RY*(   5) H  77                  0.00000     2.85205   
  1650. RY*(   1) H  78                  0.00037     0.97093   
  1651. RY*(   2) H  78                  0.00008     1.62312   
  1652. RY*(   3) H  78                  0.00004     2.07793   
  1653. RY*(   4) H  78                  0.00002     2.27672   
  1654. RY*(   5) H  78                  0.00001     2.53817   
  1655. RY*(   1) H  79                  0.00027     1.24217   
  1656. RY*(   2) H  79                  0.00010     1.98899   
  1657. RY*(   3) H  79                  0.00004     1.44863   
  1658. RY*(   4) H  79                  0.00003     2.08029   
  1659. RY*(   5) H  79                  0.00000     2.95949   
  1660. RY*(   1) H  80                  0.00085     0.55341   
  1661. RY*(   2) H  80                  0.00012     2.06363   
  1662. RY*(   3) H  80                  0.00012     2.16085   
  1663. RY*(   4) H  80                  0.00006     2.97066   
  1664. RY*(   5) H  80                  0.00000     3.10193   
  1665. RY*(   1) H  81                  0.00141     0.60382   
  1666. RY*(   2) H  81                  0.00014     2.14720   
  1667. RY*(   3) H  81                  0.00011     2.15646   
  1668. RY*(   4) H  81                  0.00006     2.95419   
  1669. RY*(   5) H  81                  0.00000     3.12741   
  1670. RY*(   1) H  82                  0.00031     0.82472   
  1671. RY*(   2) H  82                  0.00007     1.72761   
  1672. RY*(   3) H  82                  0.00004     2.00926   
  1673. RY*(   4) H  82                  0.00004     2.09126   
  1674. RY*(   5) H  82                  0.00000     2.85357   
  1675. RY*(   1) H  83                  0.00039     0.93153   
  1676. RY*(   2) H  83                  0.00007     1.70205   
  1677. RY*(   3) H  83                  0.00004     2.07573   
  1678. RY*(   4) H  83                  0.00003     1.88466   
  1679. RY*(   5) H  83                  0.00000     2.91666   
  1680. RY*(   1) H  84                  0.00021     1.14119   
  1681. RY*(   2) H  84                  0.00009     1.81143   
  1682. RY*(   3) H  84                  0.00002     1.84631   
  1683. RY*(   4) H  84                  0.00003     2.00247   
  1684. RY*(   5) H  84                  0.00000     2.75829   
  1685. RY*(   1) H  85                  0.00042     1.36641   
  1686. RY*(   2) H  85                  0.00009     2.18299   
  1687. RY*(   3) H  85                  0.00007     1.95302   
  1688. RY*(   4) H  85                  0.00003     2.23860   
  1689. RY*(   5) H  85                  0.00001     2.93265   
  1690. RY*(   1) H  86                  0.00043     1.01085   
  1691. RY*(   2) H  86                  0.00008     2.15206   
  1692. RY*(   3) H  86                  0.00005     2.50502   
  1693. RY*(   4) H  86                  0.00005     1.88990   
  1694. RY*(   5) H  86                  0.00001     2.93712   
  1695. RY*(   1) H  87                  0.00027     1.16669   
  1696. RY*(   2) H  87                  0.00006     1.57296   
  1697. RY*(   3) H  87                  0.00007     2.29147   
  1698. RY*(   4) H  87                  0.00003     2.33340   
  1699. RY*(   5) H  87                  0.00001     2.76155   
  1700. RY*(   1) H  88                  0.00034     1.08781   
  1701. RY*(   2) H  88                  0.00006     2.27077   
  1702. RY*(   3) H  88                  0.00006     1.83652   
  1703. RY*(   4) H  88                  0.00004     2.03619   
  1704. RY*(   5) H  88                  0.00001     3.05216   
  1705. RY*(   1) H  89                  0.00047     1.47651   
  1706. RY*(   2) H  89                  0.00032     2.11746   
  1707. RY*(   3) H  89                  0.00017     2.18173   
  1708. RY*(   4) H  89                  0.00010     1.41886   
  1709. RY*(   5) H  89                  0.00000     3.17633   
  1724. BD*(   1)Fe   7 - N  12          0.03303     0.26392   
  1725. BD*(   1)Fe   7 - N  23          0.03285     0.26211   
  1726. BD*(   1)Fe   7 - N  31          0.03674     0.29132   
  1727. BD*(   1)Fe   7 - N  39          0.03243     0.27627   
  1728. BD*(   1)Fe   7 - C  50          0.03399     0.35239   
  1729. BD*(   1) C   8 - C  13          0.01070     0.44675   
  1730. BD*(   2) C   8 - C  13          0.22396    -0.07057  1750(v),187(v),1747(v)
                                                    376(g),1735(r),1723(r)
  1731. BD*(   1) C   8 - C  43          0.01085     0.45034   
  1732. BD*(   1) C   8 - H  81          0.00701     0.33517   
  1733. BD*(   1) C   9 - C  16          0.01137     0.43790   
  1734. BD*(   1) C   9 - C  24          0.00906     0.45331   
  1735. BD*(   2) C   9 - C  24          0.18224    -0.06244  1747(v),1769(v),1772(v)
                                                    1739(r),402(g),796(g)
                                                    1730(r)
  1736. BD*(   1) C   9 - H  80          0.00588     0.34797   
  1737. BD*(   1) C  10 - C  27          0.01029     0.51741   
  1738. BD*(   1) C  10 - C  32          0.01093     0.45544   
  1739. BD*(   2) C  10 - C  32          0.19723    -0.06382  1769(v),1788(v),1735(r)
                                                    428(g),1742(r),1004(g)
  1740. BD*(   1) C  10 - H  73          0.00684     0.34694   
  1741. BD*(   1) C  11 - C  35          0.01018     0.51255   
  1742. BD*(   2) C  11 - C  35          0.17668    -0.05347  1788(v),1800(v),455(g)
                                                    1739(r),1082(g)
  1743. BD*(   1) C  11 - C  40          0.01069     0.49926   
  1744. BD*(   1) C  11 - H  66          0.00802     0.34027   
  1745. BD*(   1) N  12 - C  13          0.01317     0.39821   
  1746. BD*(   1) N  12 - C  16          0.01537     0.35718   
  1747. BD*(   2) N  12 - C  16          0.35389    -0.11457  1735(v),1750(v),1730(v)
                                                    585(g),177(v),480(g),178(v)
                                                    174(r)
  1748. BD*(   1) C  13 - C  14          0.01648     0.37922   
  1749. BD*(   1) C  14 - C  15          0.01070     0.49365   
  1750. BD*(   2) C  14 - C  15          0.13781    -0.03919  1730(v),1747(v),1764(r)
                                                    1757(v),1755(v),1759(v)
                                                    560(g)
  1751. BD*(   1) C  14 - C  18          0.01197     0.26939   
  1752. BD*(   1) C  15 - C  16          0.01349     0.49708   
  1753. BD*(   1) C  15 - C  17          0.00936     0.25741   
  1754. BD*(   1) C  17 - H  82          0.00259     0.31986   
  1755. BD*(   1) C  17 - H  83          0.00373     0.31960   
  1756. BD*(   1) C  17 - H  84          0.00237     0.32265   
  1757. BD*(   1) C  18 - C  19          0.00867     0.22916   
  1758. BD*(   1) C  18 - H  85          0.00668     0.29187   
  1759. BD*(   1) C  18 - H  86          0.00664     0.30652   
  1760. BD*(   1) C  19 - C  20          0.03507     0.27547   
  1761. BD*(   1) C  19 - H  87          0.00597     0.30052   
  1762. BD*(   1) C  19 - H  88          0.00554     0.31265   
  1763. BD*(   1) C  20 - O  21          0.02600     0.40842   
  1764. BD*(   2) C  20 - O  21          0.10670    -0.04408  1763(g),1750(r),1757(v)
                                                    1766(v),1761(v),690(g)
  1765. BD*(   1) C  20 - O  22          0.03699     0.38858   
  1766. BD*(   1) O  22 - H  89          0.00670     0.28798   
  1767. BD*(   1) N  23 - C  24          0.01576     0.31886   
  1768. BD*(   1) N  23 - C  27          0.01330     0.44741   
  1769. BD*(   2) N  23 - C  27          0.28489    -0.08819  1739(v),1735(v),1772(v)
                                                    872(g),177(v),766(g),178(v)
                                                    428(v),1823(r),1720(r)
  1770. BD*(   1) C  24 - C  25          0.01489     0.42033   
  1771. BD*(   1) C  25 - C  26          0.01022     0.56493   
  1772. BD*(   2) C  25 - C  26          0.12292    -0.02101  1780(v),1735(v),1769(v)
                                                    1777(v),846(g)
  1773. BD*(   1) C  25 - C  28          0.00914     0.28389   
  1774. BD*(   1) C  26 - C  27          0.02007     0.37597   
  1775. BD*(   1) C  26 - C  29          0.01370     0.32155   
  1776. BD*(   1) C  28 - H  77          0.00250     0.32408   
  1777. BD*(   1) C  28 - H  78          0.00430     0.32528   
  1778. BD*(   1) C  28 - H  79          0.00342     0.34111   
  1779. BD*(   1) C  29 - C  30          0.00244     0.50415   
  1780. BD*(   2) C  29 - C  30          0.02754    -0.04031   
  1781. BD*(   1) C  29 - H  74          0.00848     0.35633   
  1782. BD*(   1) C  30 - H  75          0.00377     0.36377   
  1783. BD*(   1) C  30 - H  76          0.00409     0.35744   
  1784. BD*(   1) N  31 - C  32          0.01561     0.29050   
  1785. BD*(   1) N  31 - C  35          0.01584     0.30102   
  1786. BD*(   1) C  32 - C  33          0.01392     0.41430   
  1787. BD*(   1) C  33 - C  34          0.00993     0.49868   
  1788. BD*(   2) C  33 - C  34          0.13633    -0.03745  1739(v),1742(v),185(v)
                                                    1792(v),1028(g)
  1789. BD*(   1) C  33 - C  36          0.00820     0.27462   
  1790. BD*(   1) C  34 - C  35          0.01426     0.35663   
  1791. BD*(   1) C  34 - C  37          0.00969     0.32228   
  1792. BD*(   1) C  36 - H  70          0.00300     0.32041   
  1793. BD*(   1) C  36 - H  71          0.00228     0.32177   
  1794. BD*(   1) C  36 - H  72          0.00228     0.32882   
  1795. BD*(   1) C  37 - C  38          0.00213     0.52754   
  1796. BD*(   1) C  37 - H  67          0.00320     0.34879   
  1797. BD*(   1) C  38 - H  68          0.00225     0.35742   
  1798. BD*(   1) C  38 - H  69          0.00209     0.35448   
  1799. BD*(   1) N  39 - C  40          0.01418     0.37707   
  1800. BD*(   2) N  39 - C  40          0.31768    -0.10737  1742(v),1804(v),187(v)
                                                    1209(g),1182(g),178(v)
                                                    455(v),1720(r),177(v)
  1801. BD*(   1) N  39 - C  43          0.01350     0.38374   
  1802. BD*(   1) C  40 - C  41          0.01664     0.38305   
  1803. BD*(   1) C  41 - C  42          0.01025     0.55136   
  1804. BD*(   2) C  41 - C  42          0.10923    -0.02425  1800(v),187(v),1811(v)
                                                    1808(v)
  1805. BD*(   1) C  41 - C  44          0.00873     0.28447   
  1806. BD*(   1) C  42 - C  43          0.01592     0.41916   
  1807. BD*(   1) C  42 - C  45          0.01207     0.27906   
  1808. BD*(   1) C  44 - H  63          0.00407     0.32096   
  1809. BD*(   1) C  44 - H  64          0.00265     0.32172   
  1810. BD*(   1) C  44 - H  65          0.00264     0.32906   
  1811. BD*(   1) C  45 - C  46          0.00789     0.23727   
  1812. BD*(   1) C  45 - H  58          0.00642     0.33012   
  1813. BD*(   1) C  45 - H  59          0.00606     0.31358   
  1814. BD*(   1) C  46 - C  47          0.03218     0.29504   
  1815. BD*(   1) C  46 - H  60          0.00644     0.31255   
  1816. BD*(   1) C  46 - H  61          0.00507     0.31396   
  1817. BD*(   1) C  47 - O  48          0.02020     0.45021   
  1818. BD*(   2) C  47 - O  48          0.09271    -0.07391   
  1819. BD*(   1) C  47 - O  49          0.04103     0.34502   
  1820. BD*(   1) O  49 - H  62          0.00596     0.31584   
  1821. BD*(   1) C  50 - O  51          0.03736     0.08070   
  1822. BD*(   2) C  50 - O  51          0.01017     0.54482   
  1823. BD*(   3) C  50 - O  51          0.04119    -0.06364   
       -------------------------------
              Total Lewis  160.72231  ( 97.2966%)
        Valence non-Lewis    4.15771  (  2.5170%)
        Rydberg non-Lewis    0.30791  (  0.1864%)
       -------------------------------
            Total unit  2  165.18793  (100.0000%)
           Charge unit  2    2.81207
 1\1\GINC-NODE854\SP\UPBE1PBE\def2TZVP\C39H38Fe1N6O5(1+,6)\ZHARTOVSKA\0
 7-Nov-2022\0\\# PBE1PBE/def2TZVP empiricaldispersion=GD3BJ scf=maxcycl
 e=999 geom=check pop=nbo guess=read\\1a6g_III_H\\1,6\C,0,9.563,29.2660
 01,2.603\C,0,10.793,29.143999,3.477\N,0,11.018,29.971001,4.542\C,0,11.
 903,28.341,3.405\C,0,12.244,29.622999,5.051\N,0,12.785,28.643,4.387\Fe
 ,0,14.633,27.799999,4.742\C,0,15.982,30.875999,5.035\C,0,13.859,27.797
 001,8.082\C,0,13.333,24.698999,4.461\C,0,15.457,27.771999,1.469\N,0,14
 .899,29.068001,6.263\C,0,15.422,30.325001,6.188\C,0,15.366,30.961,7.48
 9\C,0,14.809,30.049999,8.337\C,0,14.506,28.948,7.597\C,0,14.492,30.266
 001,9.839\C,0,15.74,32.409,7.822\C,0,14.479,33.294998,8.021\C,0,13.598
 ,33.317001,6.814\O,0,12.422,32.879002,6.9\O,0,14.082,33.764999,5.74\N,
 0,13.754,26.474001,5.981\C,0,13.521,26.642,7.379\C,0,12.876,25.492001,
 7.903\C,0,12.732,24.643,6.9\C,0,13.286,25.256001,5.694\C,0,12.416,25.3
 58,9.356\C,0,12.192,23.231001,6.941\C,0,12.38305219,22.46417462,8.0419
 2843\N,0,14.397,26.546,3.282\C,0,13.905,25.194,3.289\C,0,14.088,24.503
 ,2.063\C,0,14.7,25.377001,1.22\C,0,14.902,26.634001,1.946\C,0,13.664,2
 3.054001,1.795\C,0,15.247,25.156,-0.167\C,0,15.06416569,23.96413626,-0
 .78554627\N,0,15.464,29.084,3.481\C,0,15.738,28.924999,2.139\C,0,16.45
 2,30.069,1.609\C,0,16.638,30.898001,2.629\C,0,16.014999,30.311001,3.76
 2\C,0,16.924,30.177999,0.162\C,0,17.469999,32.186001,2.652\C,0,18.965,
 31.896,2.978\C,0,19.889999,33.044998,2.829\O,0,20.224001,33.370998,1.6
 61\O,0,20.268999,33.573002,3.948\C,0,16.25,26.974001,4.896\O,0,17.216,
 26.469999,4.82\H,0,9.78249371,28.89332331,1.62431014\H,0,8.76391414,28
 .69704915,3.03038225\H,0,9.27320393,30.29386396,2.5365472\H,0,10.40958
 266,30.68774624,4.88274125\H,0,12.70048136,30.10017914,5.89291679\H,0,
 12.05198265,27.57743313,2.67037778\H,0,17.40691131,32.65956714,1.69457
 896\H,0,17.07220064,32.84541548,3.39485194\H,0,19.02477263,31.5484893,
 3.98822945\H,0,19.30100045,31.11142332,2.33267595\H,0,21.2045082,33.66
 494555,4.14285617\H,0,17.86512979,29.68019944,0.05536828\H,0,16.203517
 63,29.72079699,-0.4835784\H,0,17.03432371,31.20943176,-0.10044075\H,0,
 15.70834431,27.76590573,0.42895726\H,0,15.7796721,25.94014913,-0.66325
 656\H,0,15.83983703,23.22731996,-0.76722379\H,0,14.14413807,23.7599157
 2,-1.29224454\H,0,14.40496266,22.38767121,2.1847165\H,0,12.72578882,22
 .86277156,2.27258882\H,0,13.56537574,22.90042963,0.74068075\H,0,12.863
 93113,23.74134886,4.37279224\H,0,11.659085,22.83740957,6.10076944\H,0,
 11.61192808,21.79954796,8.371381\H,0,13.3050211,22.52335386,8.58171649
 \H,0,13.14199189,25.8049104,10.00261184\H,0,11.47553571,25.85315519,9.
 47948383\H,0,12.3087638,24.3222186,9.60208389\H,0,13.59359589,27.80975
 676,9.11848345\H,0,16.43637544,31.83901328,5.14010215\H,0,15.27425597,
 30.84039471,10.28960789\H,0,13.56387559,30.78953431,9.93594302\H,0,14.
 41906578,29.31716488,10.3281734\H,0,16.32604873,32.81080885,7.02200217
 \H,0,16.32062716,32.42156166,8.72067364\H,0,14.79033499,34.29503346,8.
 23985976\H,0,13.91886706,32.91748397,8.85083989\H,0,15.03396822,33.812
 70625,5.62562988\\Version=AM64L-G16RevA.03\State=6-A\HF=-3475.2390596\
 S2=8.847119\S2-1=0.\S2A=8.752805\RMSD=1.466e-09\Dipole=-0.4070006,-0.9
 112305,0.6473394\Quadrupole=-7.146256,4.8864693,2.2597866,17.8665356,1
 0.2518722,22.1182299\PG=C01 [X(C39H38Fe1N6O5)]\\@


 IF YOU WISH TO UNDERSTAND THE FRAGRANCE OF THE ROSE, 
 OR THE TENACITY OF THE OAK; 
 IF YOU ARE NOT SATISFIED UNTIL YOU KNOW THE SECRET PATHS 
 BY WHICH THE SUNSHINE AND THE AIR ACHIEVE THESE WONDERS; 
 IF YOU WISH TO SEE THE PATTERN WHICH UNDERLIES ONE LARGE FIELD OF 
 HUMAN EXPERIENCE AND HUMAN MEASUREMENT, THEN TAKE UP CHEMISTRY.

                                         -- C. A. COULSON, 1973.
 Job cpu time:       0 days  5 hours 22 minutes 12.8 seconds.
 Elapsed time:       0 days  1 hours 20 minutes 47.1 seconds.
 File lengths (MBytes):  RWF=   3027 Int=      0 D2E=      0 Chk=    255 Scr=      1
 Normal termination of Gaussian 16 at Mon Nov  7 12:10:38 2022.
