 Entering Gaussian System, Link 0=g16
 Input=/net/homes/chemie/zhartovska/work/BioModel/Konrad/1a6m/1a6m05/1a6m05.com
 Output=/net/homes/chemie/zhartovska/work/BioModel/Konrad/1a6m/1a6m05/1a6m05.log
 Initial command:
 /afs/math/software/gaussian/g16.A03/g16/l1.exe "/scratch/zhartovska_gaussian.hTn1JgW/Gau-16372.inp" -scrdir="/scratch/zhartovska_gaussian.hTn1JgW/"
 Entering Link 1 = /afs/math/software/gaussian/g16.A03/g16/l1.exe PID=     16373.
  
 Copyright (c) 1988,1990,1992,1993,1995,1998,2003,2009,2016,
            Gaussian, Inc.  All Rights Reserved.
  
 This is part of the Gaussian(R) 16 program.  It is based on
 the Gaussian(R) 09 system (copyright 2009, Gaussian, Inc.),
 the Gaussian(R) 03 system (copyright 2003, Gaussian, Inc.),
 the Gaussian(R) 98 system (copyright 1998, Gaussian, Inc.),
 the Gaussian(R) 94 system (copyright 1995, Gaussian, Inc.),
 the Gaussian 92(TM) system (copyright 1992, Gaussian, Inc.),
 the Gaussian 90(TM) system (copyright 1990, Gaussian, Inc.),
 the Gaussian 88(TM) system (copyright 1988, Gaussian, Inc.),
 the Gaussian 86(TM) system (copyright 1986, Carnegie Mellon
 University), and the Gaussian 82(TM) system (copyright 1983,
 Carnegie Mellon University). Gaussian is a federally registered
 trademark of Gaussian, Inc.
  
 This software contains proprietary and confidential information,
 including trade secrets, belonging to Gaussian, Inc.
  
 This software is provided under written license and may be
 used, copied, transmitted, or stored only in accord with that
 written license.
  
 The following legend is applicable only to US Government
 contracts under FAR:
  
                    RESTRICTED RIGHTS LEGEND
  
 Use, reproduction and disclosure by the US Government is
 subject to restrictions as set forth in subparagraphs (a)
 and (c) of the Commercial Computer Software - Restricted
 Rights clause in FAR 52.227-19.
  
 Gaussian, Inc.
 340 Quinnipiac St., Bldg. 40, Wallingford CT 06492
  
  
 ---------------------------------------------------------------
 Warning -- This program may not be used in any manner that
 competes with the business of Gaussian, Inc. or will provide
 assistance to any competitor of Gaussian, Inc.  The licensee
 of this program is prohibited from giving any competitor of
 Gaussian, Inc. access to this program.  By using this program,
 the user acknowledges that Gaussian, Inc. is engaged in the
 business of creating and licensing software in the field of
 computational chemistry and represents and warrants to the
 licensee that it is not a competitor of Gaussian, Inc. and that
 it will not use this program in any manner prohibited above.
 ---------------------------------------------------------------
  

 Cite this work as:
 Gaussian 16, Revision A.03,
 M. J. Frisch, G. W. Trucks, H. B. Schlegel, G. E. Scuseria, 
 M. A. Robb, J. R. Cheeseman, G. Scalmani, V. Barone, 
 G. A. Petersson, H. Nakatsuji, X. Li, M. Caricato, A. V. Marenich, 
 J. Bloino, B. G. Janesko, R. Gomperts, B. Mennucci, H. P. Hratchian, 
 J. V. Ortiz, A. F. Izmaylov, J. L. Sonnenberg, D. Williams-Young, 
 F. Ding, F. Lipparini, F. Egidi, J. Goings, B. Peng, A. Petrone, 
 T. Henderson, D. Ranasinghe, V. G. Zakrzewski, J. Gao, N. Rega, 
 G. Zheng, W. Liang, M. Hada, M. Ehara, K. Toyota, R. Fukuda, 
 J. Hasegawa, M. Ishida, T. Nakajima, Y. Honda, O. Kitao, H. Nakai, 
 T. Vreven, K. Throssell, J. A. Montgomery, Jr., J. E. Peralta, 
 F. Ogliaro, M. J. Bearpark, J. J. Heyd, E. N. Brothers, K. N. Kudin, 
 V. N. Staroverov, T. A. Keith, R. Kobayashi, J. Normand, 
 K. Raghavachari, A. P. Rendell, J. C. Burant, S. S. Iyengar, 
 J. Tomasi, M. Cossi, J. M. Millam, M. Klene, C. Adamo, R. Cammi, 
 J. W. Ochterski, R. L. Martin, K. Morokuma, O. Farkas, 
 J. B. Foresman, and D. J. Fox, Gaussian, Inc., Wallingford CT, 2016.
 
 ******************************************
 Gaussian 16:  ES64L-G16RevA.03 25-Dec-2016
                 8-Sep-2022 
 ******************************************
 %nprocs=12
 Will use up to   12 processors via shared memory.
 %mem=16GB
 %oldchk=1a6m_II_S.chk
 %chk=1a6m_II_Q.chk
 Copying data from "1a6m_II_S.chk" to current chk file "1a6m_II_Q.chk"
 IOpt=  2 FromEx=T IUOpen= 4 IOptOp= 5 NList=   0 IFRang= 0 IUIn= 4 IUOut= 2.
 ----------------------------------------------------------------------
 # PBE1PBE/def2TZVP empiricaldispersion=GD3BJ scf=maxcycle=999 geom=che
 ck pop=nbo
 ----------------------------------------------------------------------
 1/29=2,38=1,172=1/1;
 2/12=2,40=1/2;
 3/5=44,7=101,11=2,14=-4,25=1,30=1,74=-13,124=41/1,2,3;
 4//1;
 5/5=2,7=999,38=5/2;
 6/7=2,8=2,9=2,10=2,28=1,40=1/1,7;
 99/5=1,9=1/99;
 ---------
 1a6m_II_Q
 ---------
 Structure from the checkpoint file:  "1a6m_II_Q.chk"
 Charge =  0 Multiplicity = 5
 Z-Matrix found in chk file.
 C,0,9.503,29.450001,2.528
 C,0,10.705,29.33,3.406
 N,0,10.972,30.184,4.45
 C,0,11.799,28.49,3.348
 C,0,12.167,29.837,4.966
 N,0,12.684,28.843,4.36
 Fe,0,14.515,27.975,4.75
 C,0,15.904,31.066,5.05
 C,0,13.782,28.006001,8.099
 C,0,13.251,24.816999,4.509
 C,0,15.381,27.908001,1.499
 N,0,14.784,29.263,6.257
 C,0,15.32,30.527,6.185
 C,0,15.292,31.177,7.5
 C,0,14.744,30.264,8.355
 C,0,14.411,29.112,7.593
 C,0,14.477,30.427999,9.835
 C,0,15.687,32.583,7.757
 C,0,14.458,33.523998,7.976
 C,0,13.561,33.534,6.775
 O,0,12.4,33.104,6.842
 O,0,14.05,33.974998,5.683
 N,0,13.664,26.679001,6.009
 C,0,13.423,26.879,7.368
 C,0,12.776,25.68,7.928
 C,0,12.644,24.799999,6.938
 C,0,13.185,25.434,5.76
 C,0,12.364,25.563999,9.367
 C,0,12.101,23.393,6.989
 C,0,12.33544484,22.61511205,8.07366262
 N,0,14.311,26.643999,3.267
 C,0,13.834,25.344,3.365
 C,0,14.05,24.629,2.134
 C,0,14.671,25.493,1.316
 C,0,14.805,26.752001,2.018
 C,0,13.686,23.193001,1.908
 C,0,15.24,25.292999,-0.044
 C,0,15.157,24.198999,-0.766
 N,0,15.389,29.280001,3.475
 C,0,15.682,29.076,2.164
 C,0,16.362,30.195,1.608
 C,0,16.57,31.069,2.646
 C,0,15.937,30.499001,3.808
 C,0,16.872,30.306,0.198
 C,0,17.386999,32.328999,2.587
 C,0,18.889,32.016998,2.859
 C,0,19.761999,33.226002,2.747
 O,0,20.186001,33.643002,1.646
 O,0,20.149,33.749001,3.83
 O,0,16.131001,27.289,5.175
 O,0,16.805,26.632,4.375
 H,0,11.94184704,27.69901919,2.64171105
 H,0,12.62895569,30.33883216,5.79041581
 H,0,10.38508529,30.92828811,4.76869474
 H,0,9.73434852,29.07413045,1.55326968
 H,0,8.69748747,28.88367956,2.94672377
 H,0,9.215918,30.478175,2.45491005
 H,0,11.53086522,23.00951256,6.16876606
 H,0,13.27179907,22.68136634,8.58722968
 H,0,11.58419761,21.93467384,8.4164912
 H,0,13.10623071,26.01994782,9.98837287
 H,0,11.42601091,26.05847705,9.51041517
 H,0,12.26612081,24.53089676,9.62780533
 H,0,13.54740649,28.00926417,9.14296132
 H,0,15.27398744,30.98498077,10.28163445
 H,0,13.55411414,30.95101626,9.97512362
 H,0,14.41405079,29.46399557,10.2950378
 H,0,12.8102471,23.84567497,4.42434476
 H,0,14.44685187,22.56317411,2.31948816
 H,0,12.75187891,22.98243469,2.38547212
 H,0,13.59936539,23.00806006,0.85767086
 H,0,15.97636758,23.51132912,-0.79143422
 H,0,14.27001464,23.99540787,-1.32876782
 H,0,15.76680459,26.11871544,-0.47477754
 H,0,15.61901743,27.88665359,0.45602733
 H,0,17.81483795,29.80622709,0.11936397
 H,0,16.17113032,29.85274244,-0.47150674
 H,0,16.99298414,31.338026,-0.05731388
 H,0,16.37558298,32.02047975,5.15713501
 H,0,17.28776525,32.76919021,1.6168019
 H,0,17.02978184,33.0164586,3.32503469
 H,0,19.2221061,31.28493154,2.15329537
 H,0,18.98394539,31.61366703,3.84551381
 H,0,21.08745141,33.83695656,4.01213394
 H,0,16.30498504,32.61373062,8.62995482
 H,0,16.25121482,32.94114726,6.92136122
 H,0,14.80676715,34.51848324,8.16109612
 H,0,13.90293047,33.18349889,8.82503367
 H,0,15.00189445,34.02161352,5.56757057
 Recover connectivity data from disk.
 Stoichiometry    C38H38FeN6O6(5)
 Framework group  C1[X(C38H38FeN6O6)]
 Deg. of freedom   261
 Full point group                 C1      NOp   1
 Largest Abelian subgroup         C1      NOp   1
 Largest concise Abelian subgroup C1      NOp   1
                         Standard orientation:                         
 ---------------------------------------------------------------------
 Center     Atomic      Atomic             Coordinates (Angstroms)
 Number     Number       Type             X           Y           Z
 ---------------------------------------------------------------------
      1          6           0       -1.593213   -0.088727    5.340081
      2          6           0       -1.210641   -0.419821    3.935053
      3          7           0       -0.413737   -1.487716    3.595814
      4          6           0       -1.441400    0.240916    2.745104
      5          6           0       -0.206834   -1.436510    2.265679
      6          7           0       -0.798295   -0.447423    1.723055
      7         26           0       -0.747246    0.079337   -0.271439
      8          6           0        2.601930   -0.514834   -0.331246
      9          6           0       -1.318362   -3.193250   -1.118821
     10          6           0       -4.102281    0.682462   -0.364866
     11          6           0       -0.153927    3.320524    0.411293
     12          7           0        0.397979   -1.517917   -0.645063
     13          6           0        1.767803   -1.597516   -0.558918
     14          6           0        2.227035   -2.959048   -0.855304
     15          6           0        1.100999   -3.678989   -1.135708
     16          6           0       -0.011415   -2.808795   -0.981001
     17          6           0        1.007680   -5.144774   -1.498132
     18          6           0        3.631511   -3.421230   -0.742408
     19          6           0        3.876494   -4.300848    0.526503
     20          6           0        3.562988   -3.543008    1.781295
     21          8           0        2.640625   -3.900169    2.528952
     22          8           0        4.263272   -2.506631    2.029467
     23          7           0       -2.383006   -1.009151   -0.629741
     24          6           0       -2.423138   -2.366669   -0.946751
     25          6           0       -3.824717   -2.781388   -1.129494
     26          6           0       -4.586260   -1.707341   -0.933535
     27          6           0       -3.684827   -0.626366   -0.615362
     28          6           0       -4.229232   -4.187726   -1.464907
     29          6           0       -6.083968   -1.573614   -1.060357
     30          6           0       -6.746236   -2.258608   -2.024075
     31          7           0       -1.902207    1.689395    0.022240
     32          6           0       -3.278516    1.776034   -0.137126
     33          6           0       -3.714607    3.145839   -0.055265
     34          6           0       -2.600906    3.871333    0.130714
     35          6           0       -1.481495    2.956351    0.205343
     36          6           0       -5.133619    3.599088   -0.218469
     37          6           0       -2.408849    5.345745    0.181566
     38          6           0       -3.357406    6.253141    0.138206
     39          7           0        0.908348    1.187939    0.078615
     40          6           0        0.965306    2.521831    0.330951
     41          6           0        2.311213    2.965755    0.454090
     42          6           0        3.098928    1.877097    0.173174
     43          6           0        2.212654    0.761044   -0.038434
     44          6           0        2.754437    4.382048    0.695309
     45          6           0        4.594303    1.886263    0.023727
     46          6           0        4.993117    2.255747   -1.436329
     47          6           0        6.473491    2.345741   -1.628052
     48          8           0        7.123189    3.373545   -1.332453
     49          8           0        7.030659    1.372688   -2.210218
     50          8           0       -0.637735    0.450599   -2.035766
     51          8           0       -0.843930    1.580306   -2.490925
     52          1           0       -2.019051    1.134071    2.628943
     53          1           0        0.386354   -2.145429    1.726735
     54          1           0       -0.052907   -2.177782    4.223198
     55          1           0       -1.742578    0.966998    5.429717
     56          1           0       -2.498590   -0.599791    5.593077
     57          1           0       -0.812587   -0.396157    6.004167
     58          1           0       -6.623064   -0.937953   -0.389379
     59          1           0       -6.293984   -2.405808   -2.982564
     60          1           0       -7.721382   -2.652245   -1.826492
     61          1           0       -3.531093   -4.603214   -2.161234
     62          1           0       -4.237952   -4.778701   -0.572958
     63          1           0       -5.206954   -4.183579   -1.899582
     64          1           0       -1.504868   -4.213858   -1.380496
     65          1           0        1.833902   -5.410776   -2.123831
     66          1           0        1.031406   -5.734989   -0.605953
     67          1           0        0.091726   -5.325298   -2.020952
     68          1           0       -5.157456    0.859036   -0.346780
     69          1           0       -5.369356    3.665223   -1.260081
     70          1           0       -5.788951    2.895888    0.251584
     71          1           0       -5.255755    4.559782    0.236557
     72          1           0       -3.583319    6.747310   -0.783564
     73          1           0       -3.904263    6.498214    1.024652
     74          1           0       -1.402523    5.700567    0.260997
     75          1           0        0.018119    4.346232    0.662737
     76          1           0        2.755714    4.918006   -0.230783
     77          1           0        2.081547    4.854645    1.379978
     78          1           0        3.741481    4.381428    1.108401
     79          1           0        3.654766   -0.696229   -0.390693
     80          1           0        5.012124    2.605530    0.696765
     81          1           0        4.978844    0.916145    0.260157
     82          1           0        4.555524    3.200106   -1.684520
     83          1           0        4.604596    1.510590   -2.098667
     84          1           0        7.528691    1.517907   -3.017979
     85          1           0        3.877196   -3.994131   -1.612076
     86          1           0        4.273621   -2.566419   -0.698912
     87          1           0        4.901763   -4.606197    0.548527
     88          1           0        3.253164   -5.169105    0.476602
     89          1           0        4.754049   -2.078728    1.324033
 ---------------------------------------------------------------------
 Rotational constants (GHZ):           0.0699887           0.0509669           0.0377672
 Standard basis: def2TZVP (5D, 7F)
 There are  2080 symmetry adapted cartesian basis functions of A   symmetry.
 There are  1823 symmetry adapted basis functions of A   symmetry.
  1823 basis functions,  2956 primitive gaussians,  2080 cartesian basis functions
   193 alpha electrons      189 beta electrons
       nuclear repulsion energy      7976.7035712671 Hartrees.
 NAtoms=   89 NActive=   89 NUniq=   89 SFac= 1.00D+00 NAtFMM=   60 NAOKFM=T Big=T
 Integral buffers will be    131072 words long.
 Raffenetti 2 integral format.
 Two-electron integral symmetry is turned on.
 Nuclear repulsion after empirical dispersion term =     7976.5752894370 Hartrees.
 One-electron integrals computed using PRISM.
   1 Symmetry operations used in ECPInt.
 ECPInt:  NShTT=  257403 NPrTT=  800753 LenC2=  189247 LenP2D=  381000.
 LDataN:  DoStor=T MaxTD1= 6 Len=  172
 NBasis=  1823 RedAO= T EigKep=  2.91D-06  NBF=  1823
 NBsUse=  1823 1.00D-06 EigRej= -1.00D+00 NBFU=  1823
 ExpMin= 4.20D-02 ExpMax= 3.01D+05 ExpMxC= 2.91D+03 IAcc=3 IRadAn=         5 AccDes= 0.00D+00
 Harris functional with IExCor= 1009 and IRadAn=       5 diagonalized for initial guess.
 HarFok:  IExCor= 1009 AccDes= 0.00D+00 IRadAn=         5 IDoV= 1 UseB2=F ITyADJ=14
 ICtDFT=  3500011 ScaDFX=  1.000000  1.000000  1.000000  1.000000
 FoFCou: FMM=F IPFlag=           0 FMFlag=      100000 FMFlg1=        2001
         NFxFlg=           0 DoJE=T BraDBF=F KetDBF=T FulRan=T
         wScrn=  0.000000 ICntrl=       500 IOpCl=  0 I1Cent=   200000004 NGrid=           0
         NMat0=    1 NMatS0=      1 NMatT0=    0 NMatD0=    1 NMtDS0=    0 NMtDT0=    0
 Petite list used in FoFCou.
 Initial guess <Sx>= 0.0000 <Sy>= 0.0000 <Sz>= 2.0000 <S**2>= 6.0000 S= 2.0000
 Requested convergence on RMS density matrix=1.00D-08 within 999 cycles.
 Requested convergence on MAX density matrix=1.00D-06.
 Requested convergence on             energy=1.00D-06.
 No special actions if energy rises.
 EnCoef did   100 forward-backward iterations
 EnCoef did     3 forward-backward iterations
 EnCoef did     2 forward-backward iterations
 Restarting incremental Fock formation.
 Restarting incremental Fock formation.
 Restarting incremental Fock formation.
 Restarting incremental Fock formation.
 SCF Done:  E(UPBE1PBE) =  -3512.48555129     A.U. after   84 cycles
            NFock= 84  Conv=0.21D-08     -V/T= 2.0031
 <Sx>= 0.0000 <Sy>= 0.0000 <Sz>= 2.0000 <S**2>= 6.0575 S= 2.0115
 <L.S>= 0.000000000000E+00
 Annihilation of the first spin contaminant:
 S**2 before annihilation     6.0575,   after     6.0012

 **********************************************************************

            Population analysis using the SCF density.

 **********************************************************************

 Orbital symmetries:
 Alpha Orbitals:
       Occupied  (A) (A) (A) (A) (A) (A) (A) (A) (A) (A) (A) (A)
                 (A) (A) (A) (A) (A) (A) (A) (A) (A) (A) (A) (A)
                 (A) (A) (A) (A) (A) (A) (A) (A) (A) (A) (A) (A)
                 (A) (A) (A) (A) (A) (A) (A) (A) (A) (A) (A) (A)
                 (A) (A) (A) (A) (A) (A) (A) (A) (A) (A) (A) (A)
                 (A) (A) (A) (A) (A) (A) (A) (A) (A) (A) (A) (A)
                 (A) (A) (A) (A) (A) (A) (A) (A) (A) (A) (A) (A)
                 (A) (A) (A) (A) (A) (A) (A) (A) (A) (A) (A) (A)
                 (A) (A) (A) (A) (A) (A) (A) (A) (A) (A) (A) (A)
                 (A) (A) (A) (A) (A) (A) (A) (A) (A) (A) (A) (A)
                 (A) (A) (A) (A) (A) (A) (A) (A) (A) (A) (A) (A)
                 (A) (A) (A) (A) (A) (A) (A) (A) (A) (A) (A) (A)
                 (A) (A) (A) (A) (A) (A) (A) (A) (A) (A) (A) (A)
                 (A) (A) (A) (A) (A) (A) (A) (A) (A) (A) (A) (A)
                 (A) (A) (A) (A) (A) (A) (A) (A) (A) (A) (A) (A)
                 (A) (A) (A) (A) (A) (A) (A) (A) (A) (A) (A) (A)
                 (A)
       Virtual   (A) (A) (A) (A) (A) (A) (A) (A) (A) (A) (A) (A)
                 (A) (A) (A) (A) (A) (A) (A) (A) (A) (A) (A) (A)
                 (A) (A) (A) (A) (A) (A) (A) (A) (A) (A) (A) (A)
                 (A) (A) (A) (A) (A) (A) (A) (A) (A) (A) (A) (A)
                 (A) (A) (A) (A) (A) (A) (A) (A) (A) (A) (A) (A)
                 (A) (A) (A) (A) (A) (A) (A) (A) (A) (A) (A) (A)
                 (A) (A) (A) (A) (A) (A) (A) (A) (A) (A) (A) (A)
                 (A) (A) (A) (A) (A) (A) (A) (A) (A) (A) (A) (A)
                 (A) (A) (A) (A) (A) (A) (A) (A) (A) (A) (A) (A)
                 (A) (A) (A) (A) (A) (A) (A) (A) (A) (A) (A) (A)
                 (A) (A) (A) (A) (A) (A) (A) (A) (A) (A) (A) (A)
                 (A) (A) (A) (A) (A) (A) (A) (A) (A) (A) (A) (A)
                 (A) (A) (A) (A) (A) (A) (A) (A) (A) (A) (A) (A)
                 (A) (A) (A) (A) (A) (A) (A) (A) (A) (A) (A) (A)
                 (A) (A) (A) (A) (A) (A) (A) (A) (A) (A) (A) (A)
                 (A) (A) (A) (A) (A) (A) (A) (A) (A) (A) (A) (A)
                 (A) (A) (A) (A) (A) (A) (A) (A) (A) (A) (A) (A)
                 (A) (A) (A) (A) (A) (A) (A) (A) (A) (A) (A) (A)
                 (A) (A) (A) (A) (A) (A) (A) (A) (A) (A) (A) (A)
                 (A) (A) (A) (A) (A) (A) (A) (A) (A) (A) (A) (A)
                 (A) (A) (A) (A) (A) (A) (A) (A) (A) (A) (A) (A)
                 (A) (A) (A) (A) (A) (A) (A) (A) (A) (A) (A) (A)
                 (A) (A) (A) (A) (A) (A) (A) (A) (A) (A) (A) (A)
                 (A) (A) (A) (A) (A) (A) (A) (A) (A) (A) (A) (A)
                 (A) (A) (A) (A) (A) (A) (A) (A) (A) (A) (A) (A)
                 (A) (A) (A) (A) (A) (A) (A) (A) (A) (A) (A) (A)
                 (A) (A) (A) (A) (A) (A) (A) (A) (A) (A) (A) (A)
                 (A) (A) (A) (A) (A) (A) (A) (A) (A) (A) (A) (A)
                 (A) (A) (A) (A) (A) (A) (A) (A) (A) (A) (A) (A)
                 (A) (A) (A) (A) (A) (A) (A) (A) (A) (A) (A) (A)
                 (A) (A) (A) (A) (A) (A) (A) (A) (A) (A) (A) (A)
                 (A) (A) (A) (A) (A) (A) (A) (A) (A) (A) (A) (A)
                 (A) (A) (A) (A) (A) (A) (A) (A) (A) (A) (A) (A)
                 (A) (A) (A) (A) (A) (A) (A) (A) (A) (A) (A) (A)
                 (A) (A) (A) (A) (A) (A) (A) (A) (A) (A) (A) (A)
                 (A) (A) (A) (A) (A) (A) (A) (A) (A) (A) (A) (A)
                 (A) (A) (A) (A) (A) (A) (A) (A) (A) (A) (A) (A)
                 (A) (A) (A) (A) (A) (A) (A) (A) (A) (A) (A) (A)
                 (A) (A) (A) (A) (A) (A) (A) (A) (A) (A) (A) (A)
                 (A) (A) (A) (A) (A) (A) (A) (A) (A) (A) (A) (A)
                 (A) (A) (A) (A) (A) (A) (A) (A) (A) (A) (A) (A)
                 (A) (A) (A) (A) (A) (A) (A) (A) (A) (A) (A) (A)
                 (A) (A) (A) (A) (A) (A) (A) (A) (A) (A) (A) (A)
                 (A) (A) (A) (A) (A) (A) (A) (A) (A) (A) (A) (A)
                 (A) (A) (A) (A) (A) (A) (A) (A) (A) (A) (A) (A)
                 (A) (A) (A) (A) (A) (A) (A) (A) (A) (A) (A) (A)
                 (A) (A) (A) (A) (A) (A) (A) (A) (A) (A) (A) (A)
                 (A) (A) (A) (A) (A) (A) (A) (A) (A) (A) (A) (A)
                 (A) (A) (A) (A) (A) (A) (A) (A) (A) (A) (A) (A)
                 (A) (A) (A) (A) (A) (A) (A) (A) (A) (A) (A) (A)
                 (A) (A) (A) (A) (A) (A) (A) (A) (A) (A) (A) (A)
                 (A) (A) (A) (A) (A) (A) (A) (A) (A) (A) (A) (A)
                 (A) (A) (A) (A) (A) (A) (A) (A) (A) (A) (A) (A)
                 (A) (A) (A) (A) (A) (A) (A) (A) (A) (A) (A) (A)
                 (A) (A) (A) (A) (A) (A) (A) (A) (A) (A) (A) (A)
                 (A) (A) (A) (A) (A) (A) (A) (A) (A) (A) (A) (A)
                 (A) (A) (A) (A) (A) (A) (A) (A) (A) (A) (A) (A)
                 (A) (A) (A) (A) (A) (A) (A) (A) (A) (A) (A) (A)
                 (A) (A) (A) (A) (A) (A) (A) (A) (A) (A) (A) (A)
                 (A) (A) (A) (A) (A) (A) (A) (A) (A) (A) (A) (A)
                 (A) (A) (A) (A) (A) (A) (A) (A) (A) (A) (A) (A)
                 (A) (A) (A) (A) (A) (A) (A) (A) (A) (A) (A) (A)
                 (A) (A) (A) (A) (A) (A) (A) (A) (A) (A) (A) (A)
                 (A) (A) (A) (A) (A) (A) (A) (A) (A) (A) (A) (A)
                 (A) (A) (A) (A) (A) (A) (A) (A) (A) (A) (A) (A)
                 (A) (A) (A) (A) (A) (A) (A) (A) (A) (A) (A) (A)
                 (A) (A) (A) (A) (A) (A) (A) (A) (A) (A) (A) (A)
                 (A) (A) (A) (A) (A) (A) (A) (A) (A) (A) (A) (A)
                 (A) (A) (A) (A) (A) (A) (A) (A) (A) (A) (A) (A)
                 (A) (A) (A) (A) (A) (A) (A) (A) (A) (A) (A) (A)
                 (A) (A) (A) (A) (A) (A) (A) (A) (A) (A) (A) (A)
                 (A) (A) (A) (A) (A) (A) (A) (A) (A) (A) (A) (A)
                 (A) (A) (A) (A) (A) (A) (A) (A) (A) (A) (A) (A)
                 (A) (A) (A) (A) (A) (A) (A) (A) (A) (A) (A) (A)
                 (A) (A) (A) (A) (A) (A) (A) (A) (A) (A) (A) (A)
                 (A) (A) (A) (A) (A) (A) (A) (A) (A) (A) (A) (A)
                 (A) (A) (A) (A) (A) (A) (A) (A) (A) (A) (A) (A)
                 (A) (A) (A) (A) (A) (A) (A) (A) (A) (A) (A) (A)
                 (A) (A) (A) (A) (A) (A) (A) (A) (A) (A) (A) (A)
                 (A) (A) (A) (A) (A) (A) (A) (A) (A) (A) (A) (A)
                 (A) (A) (A) (A) (A) (A) (A) (A) (A) (A) (A) (A)
                 (A) (A) (A) (A) (A) (A) (A) (A) (A) (A) (A) (A)
                 (A) (A) (A) (A) (A) (A) (A) (A) (A) (A) (A) (A)
                 (A) (A) (A) (A) (A) (A) (A) (A) (A) (A) (A) (A)
                 (A) (A) (A) (A) (A) (A) (A) (A) (A) (A) (A) (A)
                 (A) (A) (A) (A) (A) (A) (A) (A) (A) (A) (A) (A)
                 (A) (A) (A) (A) (A) (A) (A) (A) (A) (A) (A) (A)
                 (A) (A) (A) (A) (A) (A) (A) (A) (A) (A) (A) (A)
                 (A) (A) (A) (A) (A) (A) (A) (A) (A) (A) (A) (A)
                 (A) (A) (A) (A) (A) (A) (A) (A) (A) (A) (A) (A)
                 (A) (A) (A) (A) (A) (A) (A) (A) (A) (A) (A) (A)
                 (A) (A) (A) (A) (A) (A) (A) (A) (A) (A) (A) (A)
                 (A) (A) (A) (A) (A) (A) (A) (A) (A) (A) (A) (A)
                 (A) (A) (A) (A) (A) (A) (A) (A) (A) (A) (A) (A)
                 (A) (A) (A) (A) (A) (A) (A) (A) (A) (A) (A) (A)
                 (A) (A) (A) (A) (A) (A) (A) (A) (A) (A) (A) (A)
                 (A) (A) (A) (A) (A) (A) (A) (A) (A) (A) (A) (A)
                 (A) (A) (A) (A) (A) (A) (A) (A) (A) (A) (A) (A)
                 (A) (A) (A) (A) (A) (A) (A) (A) (A) (A) (A) (A)
                 (A) (A) (A) (A) (A) (A) (A) (A) (A) (A) (A) (A)
                 (A) (A) (A) (A) (A) (A) (A) (A) (A) (A) (A) (A)
                 (A) (A) (A) (A) (A) (A) (A) (A) (A) (A) (A) (A)
                 (A) (A) (A) (A) (A) (A) (A) (A) (A) (A) (A) (A)
                 (A) (A) (A) (A) (A) (A) (A) (A) (A) (A) (A) (A)
                 (A) (A) (A) (A) (A) (A) (A) (A) (A) (A) (A) (A)
                 (A) (A) (A) (A) (A) (A) (A) (A) (A) (A) (A) (A)
                 (A) (A) (A) (A) (A) (A) (A) (A) (A) (A) (A) (A)
                 (A) (A) (A) (A) (A) (A) (A) (A) (A) (A) (A) (A)
                 (A) (A) (A) (A) (A) (A) (A) (A) (A) (A) (A) (A)
                 (A) (A) (A) (A) (A) (A) (A) (A) (A) (A) (A) (A)
                 (A) (A) (A) (A) (A) (A) (A) (A) (A) (A) (A) (A)
                 (A) (A) (A) (A) (A) (A) (A) (A) (A) (A) (A) (A)
                 (A) (A) (A) (A) (A) (A) (A) (A) (A) (A) (A) (A)
                 (A) (A) (A) (A) (A) (A) (A) (A) (A) (A) (A) (A)
                 (A) (A) (A) (A) (A) (A) (A) (A) (A) (A) (A) (A)
                 (A) (A) (A) (A) (A) (A) (A) (A) (A) (A) (A) (A)
                 (A) (A) (A) (A) (A) (A) (A) (A) (A) (A) (A) (A)
                 (A) (A) (A) (A) (A) (A) (A) (A) (A) (A) (A) (A)
                 (A) (A) (A) (A) (A) (A) (A) (A) (A) (A) (A) (A)
                 (A) (A) (A) (A) (A) (A) (A) (A) (A) (A) (A) (A)
                 (A) (A) (A) (A) (A) (A) (A) (A) (A) (A) (A) (A)
                 (A) (A) (A) (A) (A) (A) (A) (A) (A) (A) (A) (A)
                 (A) (A) (A) (A) (A) (A) (A) (A) (A) (A) (A) (A)
                 (A) (A) (A) (A) (A) (A) (A) (A) (A) (A) (A) (A)
                 (A) (A) (A) (A) (A) (A) (A) (A) (A) (A) (A) (A)
                 (A) (A) (A) (A) (A) (A) (A) (A) (A) (A) (A) (A)
                 (A) (A) (A) (A) (A) (A) (A) (A) (A) (A) (A) (A)
                 (A) (A) (A) (A) (A) (A) (A) (A) (A) (A) (A) (A)
                 (A) (A) (A) (A) (A) (A) (A) (A) (A) (A) (A) (A)
                 (A) (A) (A) (A) (A) (A) (A) (A) (A) (A) (A) (A)
                 (A) (A) (A) (A) (A) (A) (A) (A) (A) (A) (A) (A)
                 (A) (A) (A) (A) (A) (A) (A) (A) (A) (A) (A) (A)
                 (A) (A) (A) (A) (A) (A) (A) (A) (A) (A) (A) (A)
                 (A) (A) (A) (A) (A) (A) (A) (A) (A) (A) (A) (A)
                 (A) (A) (A) (A) (A) (A) (A) (A) (A) (A) (A) (A)
                 (A) (A) (A) (A) (A) (A) (A) (A) (A) (A)
 Beta  Orbitals:
       Occupied  (A) (A) (A) (A) (A) (A) (A) (A) (A) (A) (A) (A)
                 (A) (A) (A) (A) (A) (A) (A) (A) (A) (A) (A) (A)
                 (A) (A) (A) (A) (A) (A) (A) (A) (A) (A) (A) (A)
                 (A) (A) (A) (A) (A) (A) (A) (A) (A) (A) (A) (A)
                 (A) (A) (A) (A) (A) (A) (A) (A) (A) (A) (A) (A)
                 (A) (A) (A) (A) (A) (A) (A) (A) (A) (A) (A) (A)
                 (A) (A) (A) (A) (A) (A) (A) (A) (A) (A) (A) (A)
                 (A) (A) (A) (A) (A) (A) (A) (A) (A) (A) (A) (A)
                 (A) (A) (A) (A) (A) (A) (A) (A) (A) (A) (A) (A)
                 (A) (A) (A) (A) (A) (A) (A) (A) (A) (A) (A) (A)
                 (A) (A) (A) (A) (A) (A) (A) (A) (A) (A) (A) (A)
                 (A) (A) (A) (A) (A) (A) (A) (A) (A) (A) (A) (A)
                 (A) (A) (A) (A) (A) (A) (A) (A) (A) (A) (A) (A)
                 (A) (A) (A) (A) (A) (A) (A) (A) (A) (A) (A) (A)
                 (A) (A) (A) (A) (A) (A) (A) (A) (A) (A) (A) (A)
                 (A) (A) (A) (A) (A) (A) (A) (A) (A)
       Virtual   (A) (A) (A) (A) (A) (A) (A) (A) (A) (A) (A) (A)
                 (A) (A) (A) (A) (A) (A) (A) (A) (A) (A) (A) (A)
                 (A) (A) (A) (A) (A) (A) (A) (A) (A) (A) (A) (A)
                 (A) (A) (A) (A) (A) (A) (A) (A) (A) (A) (A) (A)
                 (A) (A) (A) (A) (A) (A) (A) (A) (A) (A) (A) (A)
                 (A) (A) (A) (A) (A) (A) (A) (A) (A) (A) (A) (A)
                 (A) (A) (A) (A) (A) (A) (A) (A) (A) (A) (A) (A)
                 (A) (A) (A) (A) (A) (A) (A) (A) (A) (A) (A) (A)
                 (A) (A) (A) (A) (A) (A) (A) (A) (A) (A) (A) (A)
                 (A) (A) (A) (A) (A) (A) (A) (A) (A) (A) (A) (A)
                 (A) (A) (A) (A) (A) (A) (A) (A) (A) (A) (A) (A)
                 (A) (A) (A) (A) (A) (A) (A) (A) (A) (A) (A) (A)
                 (A) (A) (A) (A) (A) (A) (A) (A) (A) (A) (A) (A)
                 (A) (A) (A) (A) (A) (A) (A) (A) (A) (A) (A) (A)
                 (A) (A) (A) (A) (A) (A) (A) (A) (A) (A) (A) (A)
                 (A) (A) (A) (A) (A) (A) (A) (A) (A) (A) (A) (A)
                 (A) (A) (A) (A) (A) (A) (A) (A) (A) (A) (A) (A)
                 (A) (A) (A) (A) (A) (A) (A) (A) (A) (A) (A) (A)
                 (A) (A) (A) (A) (A) (A) (A) (A) (A) (A) (A) (A)
                 (A) (A) (A) (A) (A) (A) (A) (A) (A) (A) (A) (A)
                 (A) (A) (A) (A) (A) (A) (A) (A) (A) (A) (A) (A)
                 (A) (A) (A) (A) (A) (A) (A) (A) (A) (A) (A) (A)
                 (A) (A) (A) (A) (A) (A) (A) (A) (A) (A) (A) (A)
                 (A) (A) (A) (A) (A) (A) (A) (A) (A) (A) (A) (A)
                 (A) (A) (A) (A) (A) (A) (A) (A) (A) (A) (A) (A)
                 (A) (A) (A) (A) (A) (A) (A) (A) (A) (A) (A) (A)
                 (A) (A) (A) (A) (A) (A) (A) (A) (A) (A) (A) (A)
                 (A) (A) (A) (A) (A) (A) (A) (A) (A) (A) (A) (A)
                 (A) (A) (A) (A) (A) (A) (A) (A) (A) (A) (A) (A)
                 (A) (A) (A) (A) (A) (A) (A) (A) (A) (A) (A) (A)
                 (A) (A) (A) (A) (A) (A) (A) (A) (A) (A) (A) (A)
                 (A) (A) (A) (A) (A) (A) (A) (A) (A) (A) (A) (A)
                 (A) (A) (A) (A) (A) (A) (A) (A) (A) (A) (A) (A)
                 (A) (A) (A) (A) (A) (A) (A) (A) (A) (A) (A) (A)
                 (A) (A) (A) (A) (A) (A) (A) (A) (A) (A) (A) (A)
                 (A) (A) (A) (A) (A) (A) (A) (A) (A) (A) (A) (A)
                 (A) (A) (A) (A) (A) (A) (A) (A) (A) (A) (A) (A)
                 (A) (A) (A) (A) (A) (A) (A) (A) (A) (A) (A) (A)
                 (A) (A) (A) (A) (A) (A) (A) (A) (A) (A) (A) (A)
                 (A) (A) (A) (A) (A) (A) (A) (A) (A) (A) (A) (A)
                 (A) (A) (A) (A) (A) (A) (A) (A) (A) (A) (A) (A)
                 (A) (A) (A) (A) (A) (A) (A) (A) (A) (A) (A) (A)
                 (A) (A) (A) (A) (A) (A) (A) (A) (A) (A) (A) (A)
                 (A) (A) (A) (A) (A) (A) (A) (A) (A) (A) (A) (A)
                 (A) (A) (A) (A) (A) (A) (A) (A) (A) (A) (A) (A)
                 (A) (A) (A) (A) (A) (A) (A) (A) (A) (A) (A) (A)
                 (A) (A) (A) (A) (A) (A) (A) (A) (A) (A) (A) (A)
                 (A) (A) (A) (A) (A) (A) (A) (A) (A) (A) (A) (A)
                 (A) (A) (A) (A) (A) (A) (A) (A) (A) (A) (A) (A)
                 (A) (A) (A) (A) (A) (A) (A) (A) (A) (A) (A) (A)
                 (A) (A) (A) (A) (A) (A) (A) (A) (A) (A) (A) (A)
                 (A) (A) (A) (A) (A) (A) (A) (A) (A) (A) (A) (A)
                 (A) (A) (A) (A) (A) (A) (A) (A) (A) (A) (A) (A)
                 (A) (A) (A) (A) (A) (A) (A) (A) (A) (A) (A) (A)
                 (A) (A) (A) (A) (A) (A) (A) (A) (A) (A) (A) (A)
                 (A) (A) (A) (A) (A) (A) (A) (A) (A) (A) (A) (A)
                 (A) (A) (A) (A) (A) (A) (A) (A) (A) (A) (A) (A)
                 (A) (A) (A) (A) (A) (A) (A) (A) (A) (A) (A) (A)
                 (A) (A) (A) (A) (A) (A) (A) (A) (A) (A) (A) (A)
                 (A) (A) (A) (A) (A) (A) (A) (A) (A) (A) (A) (A)
                 (A) (A) (A) (A) (A) (A) (A) (A) (A) (A) (A) (A)
                 (A) (A) (A) (A) (A) (A) (A) (A) (A) (A) (A) (A)
                 (A) (A) (A) (A) (A) (A) (A) (A) (A) (A) (A) (A)
                 (A) (A) (A) (A) (A) (A) (A) (A) (A) (A) (A) (A)
                 (A) (A) (A) (A) (A) (A) (A) (A) (A) (A) (A) (A)
                 (A) (A) (A) (A) (A) (A) (A) (A) (A) (A) (A) (A)
                 (A) (A) (A) (A) (A) (A) (A) (A) (A) (A) (A) (A)
                 (A) (A) (A) (A) (A) (A) (A) (A) (A) (A) (A) (A)
                 (A) (A) (A) (A) (A) (A) (A) (A) (A) (A) (A) (A)
                 (A) (A) (A) (A) (A) (A) (A) (A) (A) (A) (A) (A)
                 (A) (A) (A) (A) (A) (A) (A) (A) (A) (A) (A) (A)
                 (A) (A) (A) (A) (A) (A) (A) (A) (A) (A) (A) (A)
                 (A) (A) (A) (A) (A) (A) (A) (A) (A) (A) (A) (A)
                 (A) (A) (A) (A) (A) (A) (A) (A) (A) (A) (A) (A)
                 (A) (A) (A) (A) (A) (A) (A) (A) (A) (A) (A) (A)
                 (A) (A) (A) (A) (A) (A) (A) (A) (A) (A) (A) (A)
                 (A) (A) (A) (A) (A) (A) (A) (A) (A) (A) (A) (A)
                 (A) (A) (A) (A) (A) (A) (A) (A) (A) (A) (A) (A)
                 (A) (A) (A) (A) (A) (A) (A) (A) (A) (A) (A) (A)
                 (A) (A) (A) (A) (A) (A) (A) (A) (A) (A) (A) (A)
                 (A) (A) (A) (A) (A) (A) (A) (A) (A) (A) (A) (A)
                 (A) (A) (A) (A) (A) (A) (A) (A) (A) (A) (A) (A)
                 (A) (A) (A) (A) (A) (A) (A) (A) (A) (A) (A) (A)
                 (A) (A) (A) (A) (A) (A) (A) (A) (A) (A) (A) (A)
                 (A) (A) (A) (A) (A) (A) (A) (A) (A) (A) (A) (A)
                 (A) (A) (A) (A) (A) (A) (A) (A) (A) (A) (A) (A)
                 (A) (A) (A) (A) (A) (A) (A) (A) (A) (A) (A) (A)
                 (A) (A) (A) (A) (A) (A) (A) (A) (A) (A) (A) (A)
                 (A) (A) (A) (A) (A) (A) (A) (A) (A) (A) (A) (A)
                 (A) (A) (A) (A) (A) (A) (A) (A) (A) (A) (A) (A)
                 (A) (A) (A) (A) (A) (A) (A) (A) (A) (A) (A) (A)
                 (A) (A) (A) (A) (A) (A) (A) (A) (A) (A) (A) (A)
                 (A) (A) (A) (A) (A) (A) (A) (A) (A) (A) (A) (A)
                 (A) (A) (A) (A) (A) (A) (A) (A) (A) (A) (A) (A)
                 (A) (A) (A) (A) (A) (A) (A) (A) (A) (A) (A) (A)
                 (A) (A) (A) (A) (A) (A) (A) (A) (A) (A) (A) (A)
                 (A) (A) (A) (A) (A) (A) (A) (A) (A) (A) (A) (A)
                 (A) (A) (A) (A) (A) (A) (A) (A) (A) (A) (A) (A)
                 (A) (A) (A) (A) (A) (A) (A) (A) (A) (A) (A) (A)
                 (A) (A) (A) (A) (A) (A) (A) (A) (A) (A) (A) (A)
                 (A) (A) (A) (A) (A) (A) (A) (A) (A) (A) (A) (A)
                 (A) (A) (A) (A) (A) (A) (A) (A) (A) (A) (A) (A)
                 (A) (A) (A) (A) (A) (A) (A) (A) (A) (A) (A) (A)
                 (A) (A) (A) (A) (A) (A) (A) (A) (A) (A) (A) (A)
                 (A) (A) (A) (A) (A) (A) (A) (A) (A) (A) (A) (A)
                 (A) (A) (A) (A) (A) (A) (A) (A) (A) (A) (A) (A)
                 (A) (A) (A) (A) (A) (A) (A) (A) (A) (A) (A) (A)
                 (A) (A) (A) (A) (A) (A) (A) (A) (A) (A) (A) (A)
                 (A) (A) (A) (A) (A) (A) (A) (A) (A) (A) (A) (A)
                 (A) (A) (A) (A) (A) (A) (A) (A) (A) (A) (A) (A)
                 (A) (A) (A) (A) (A) (A) (A) (A) (A) (A) (A) (A)
                 (A) (A) (A) (A) (A) (A) (A) (A) (A) (A) (A) (A)
                 (A) (A) (A) (A) (A) (A) (A) (A) (A) (A) (A) (A)
                 (A) (A) (A) (A) (A) (A) (A) (A) (A) (A) (A) (A)
                 (A) (A) (A) (A) (A) (A) (A) (A) (A) (A) (A) (A)
                 (A) (A) (A) (A) (A) (A) (A) (A) (A) (A) (A) (A)
                 (A) (A) (A) (A) (A) (A) (A) (A) (A) (A) (A) (A)
                 (A) (A) (A) (A) (A) (A) (A) (A) (A) (A) (A) (A)
                 (A) (A) (A) (A) (A) (A) (A) (A) (A) (A) (A) (A)
                 (A) (A) (A) (A) (A) (A) (A) (A) (A) (A) (A) (A)
                 (A) (A) (A) (A) (A) (A) (A) (A) (A) (A) (A) (A)
                 (A) (A) (A) (A) (A) (A) (A) (A) (A) (A) (A) (A)
                 (A) (A) (A) (A) (A) (A) (A) (A) (A) (A) (A) (A)
                 (A) (A) (A) (A) (A) (A) (A) (A) (A) (A) (A) (A)
                 (A) (A) (A) (A) (A) (A) (A) (A) (A) (A) (A) (A)
                 (A) (A) (A) (A) (A) (A) (A) (A) (A) (A) (A) (A)
                 (A) (A) (A) (A) (A) (A) (A) (A) (A) (A) (A) (A)
                 (A) (A) (A) (A) (A) (A) (A) (A) (A) (A) (A) (A)
                 (A) (A) (A) (A) (A) (A) (A) (A) (A) (A) (A) (A)
                 (A) (A) (A) (A) (A) (A) (A) (A) (A) (A) (A) (A)
                 (A) (A) (A) (A) (A) (A) (A) (A) (A) (A) (A) (A)
                 (A) (A) (A) (A) (A) (A) (A) (A) (A) (A) (A) (A)
                 (A) (A) (A) (A) (A) (A) (A) (A) (A) (A) (A) (A)
                 (A) (A) (A) (A) (A) (A) (A) (A) (A) (A) (A) (A)
                 (A) (A) (A) (A) (A) (A) (A) (A) (A) (A) (A) (A)
                 (A) (A) (A) (A) (A) (A) (A) (A) (A) (A) (A) (A)
                 (A) (A)
 The electronic state is 5-A.
 Alpha  occ. eigenvalues -- -256.37509 -30.16092 -25.99379 -25.98740 -25.97122
 Alpha  occ. eigenvalues --  -19.27300 -19.25761 -19.24813 -19.20826 -19.18778
 Alpha  occ. eigenvalues --  -19.18269 -14.44781 -14.39808 -14.38309 -14.38118
 Alpha  occ. eigenvalues --  -14.38104 -14.37408 -10.36044 -10.35449 -10.28004
 Alpha  occ. eigenvalues --  -10.26970 -10.25668 -10.25353 -10.25133 -10.25075
 Alpha  occ. eigenvalues --  -10.25072 -10.25055 -10.24935 -10.24791 -10.24508
 Alpha  occ. eigenvalues --  -10.24428 -10.24199 -10.23790 -10.23605 -10.23439
 Alpha  occ. eigenvalues --  -10.23410 -10.23027 -10.23024 -10.22946 -10.22890
 Alpha  occ. eigenvalues --  -10.22837 -10.22556 -10.22482 -10.22441 -10.22421
 Alpha  occ. eigenvalues --  -10.22333 -10.22215 -10.22039 -10.22037 -10.21982
 Alpha  occ. eigenvalues --  -10.21591 -10.21527 -10.21370 -10.21023 -10.20822
 Alpha  occ. eigenvalues --   -3.51910  -2.29699  -2.28114  -2.24619  -1.19481
 Alpha  occ. eigenvalues --   -1.16836  -1.16491  -1.06815  -1.04046  -1.02521
 Alpha  occ. eigenvalues --   -0.98820  -0.97849  -0.97710  -0.96749  -0.92334
 Alpha  occ. eigenvalues --   -0.85338  -0.85003  -0.84514  -0.83980  -0.83243
 Alpha  occ. eigenvalues --   -0.81932  -0.81462  -0.81436  -0.80262  -0.79485
 Alpha  occ. eigenvalues --   -0.79067  -0.77499  -0.76916  -0.75912  -0.74951
 Alpha  occ. eigenvalues --   -0.73734  -0.73326  -0.72924  -0.72234  -0.70208
 Alpha  occ. eigenvalues --   -0.69991  -0.69869  -0.67904  -0.66512  -0.66066
 Alpha  occ. eigenvalues --   -0.65608  -0.64910  -0.62724  -0.62318  -0.61207
 Alpha  occ. eigenvalues --   -0.59930  -0.58368  -0.57168  -0.57155  -0.55904
 Alpha  occ. eigenvalues --   -0.55385  -0.55042  -0.54399  -0.53141  -0.52900
 Alpha  occ. eigenvalues --   -0.52543  -0.51931  -0.51230  -0.50882  -0.50081
 Alpha  occ. eigenvalues --   -0.49480  -0.49351  -0.48968  -0.48633  -0.48572
 Alpha  occ. eigenvalues --   -0.48460  -0.48307  -0.47771  -0.47708  -0.46574
 Alpha  occ. eigenvalues --   -0.46569  -0.46064  -0.45947  -0.45732  -0.45217
 Alpha  occ. eigenvalues --   -0.45083  -0.44818  -0.44699  -0.44410  -0.44360
 Alpha  occ. eigenvalues --   -0.44250  -0.43944  -0.43822  -0.43612  -0.43431
 Alpha  occ. eigenvalues --   -0.43274  -0.42995  -0.42817  -0.42655  -0.41922
 Alpha  occ. eigenvalues --   -0.41707  -0.41573  -0.40992  -0.40670  -0.40480
 Alpha  occ. eigenvalues --   -0.40300  -0.40041  -0.39735  -0.39445  -0.39243
 Alpha  occ. eigenvalues --   -0.38866  -0.38772  -0.38543  -0.38280  -0.38116
 Alpha  occ. eigenvalues --   -0.37468  -0.37278  -0.37175  -0.36503  -0.36101
 Alpha  occ. eigenvalues --   -0.35635  -0.35272  -0.34176  -0.33852  -0.33682
 Alpha  occ. eigenvalues --   -0.33221  -0.33063  -0.32056  -0.31666  -0.30773
 Alpha  occ. eigenvalues --   -0.29742  -0.29351  -0.29067  -0.28751  -0.28193
 Alpha  occ. eigenvalues --   -0.27306  -0.27022  -0.26993  -0.24714  -0.23994
 Alpha  occ. eigenvalues --   -0.23788  -0.22736  -0.22472  -0.20795  -0.20395
 Alpha  occ. eigenvalues --   -0.19989  -0.19516  -0.17179
 Alpha virt. eigenvalues --   -0.07832  -0.07028  -0.03066  -0.01975  -0.01567
 Alpha virt. eigenvalues --   -0.01110  -0.00521  -0.00047   0.00150   0.02096
 Alpha virt. eigenvalues --    0.03338   0.03620   0.04037   0.04440   0.04652
 Alpha virt. eigenvalues --    0.04763   0.05349   0.05444   0.06566   0.06882
 Alpha virt. eigenvalues --    0.07015   0.07321   0.07788   0.07827   0.08151
 Alpha virt. eigenvalues --    0.08360   0.08900   0.09125   0.09280   0.09401
 Alpha virt. eigenvalues --    0.09879   0.10432   0.10826   0.10878   0.10912
 Alpha virt. eigenvalues --    0.11428   0.11575   0.11786   0.12098   0.12522
 Alpha virt. eigenvalues --    0.12741   0.12844   0.13066   0.13308   0.13435
 Alpha virt. eigenvalues --    0.13623   0.13849   0.13988   0.14303   0.14483
 Alpha virt. eigenvalues --    0.14672   0.14820   0.15016   0.15108   0.15236
 Alpha virt. eigenvalues --    0.15507   0.15621   0.16287   0.16463   0.16712
 Alpha virt. eigenvalues --    0.16831   0.17044   0.17303   0.17541   0.17904
 Alpha virt. eigenvalues --    0.18146   0.18309   0.18522   0.18587   0.18644
 Alpha virt. eigenvalues --    0.19241   0.19372   0.19524   0.19759   0.20091
 Alpha virt. eigenvalues --    0.20164   0.20697   0.20792   0.21212   0.21270
 Alpha virt. eigenvalues --    0.21339   0.21630   0.21898   0.22089   0.22376
 Alpha virt. eigenvalues --    0.22615   0.23001   0.23342   0.23413   0.23629
 Alpha virt. eigenvalues --    0.23912   0.24415   0.24495   0.24857   0.24944
 Alpha virt. eigenvalues --    0.25175   0.25354   0.25651   0.25959   0.26256
 Alpha virt. eigenvalues --    0.26345   0.26532   0.26768   0.27036   0.27134
 Alpha virt. eigenvalues --    0.27260   0.27783   0.27904   0.28103   0.28376
 Alpha virt. eigenvalues --    0.28548   0.28746   0.29072   0.29232   0.29465
 Alpha virt. eigenvalues --    0.29650   0.29911   0.30325   0.30443   0.30675
 Alpha virt. eigenvalues --    0.30786   0.31307   0.31365   0.31604   0.31725
 Alpha virt. eigenvalues --    0.32012   0.32350   0.32612   0.32861   0.33259
 Alpha virt. eigenvalues --    0.33426   0.33588   0.33831   0.34037   0.34375
 Alpha virt. eigenvalues --    0.34655   0.35015   0.35369   0.35458   0.35846
 Alpha virt. eigenvalues --    0.35999   0.36377   0.36603   0.36751   0.36975
 Alpha virt. eigenvalues --    0.37282   0.37533   0.37655   0.37771   0.37912
 Alpha virt. eigenvalues --    0.38140   0.38481   0.38711   0.38848   0.39087
 Alpha virt. eigenvalues --    0.39400   0.39537   0.39648   0.39742   0.39870
 Alpha virt. eigenvalues --    0.40239   0.40624   0.40870   0.40931   0.41219
 Alpha virt. eigenvalues --    0.41281   0.41401   0.41584   0.41707   0.41875
 Alpha virt. eigenvalues --    0.42137   0.42295   0.42495   0.42690   0.42833
 Alpha virt. eigenvalues --    0.43161   0.43252   0.43468   0.43681   0.43902
 Alpha virt. eigenvalues --    0.44156   0.44250   0.44377   0.44589   0.44739
 Alpha virt. eigenvalues --    0.44811   0.44960   0.45209   0.45500   0.45864
 Alpha virt. eigenvalues --    0.45951   0.46201   0.46270   0.46437   0.46698
 Alpha virt. eigenvalues --    0.46877   0.47114   0.47216   0.47494   0.47608
 Alpha virt. eigenvalues --    0.47770   0.47871   0.47995   0.48248   0.48395
 Alpha virt. eigenvalues --    0.48621   0.48841   0.49104   0.49277   0.49524
 Alpha virt. eigenvalues --    0.49668   0.49823   0.49937   0.50191   0.50224
 Alpha virt. eigenvalues --    0.50789   0.51032   0.51099   0.51297   0.51531
 Alpha virt. eigenvalues --    0.51646   0.51927   0.52083   0.52470   0.52753
 Alpha virt. eigenvalues --    0.53077   0.53264   0.53642   0.53841   0.54063
 Alpha virt. eigenvalues --    0.54130   0.54319   0.54536   0.54603   0.54814
 Alpha virt. eigenvalues --    0.55068   0.55310   0.55524   0.55695   0.55799
 Alpha virt. eigenvalues --    0.56204   0.56566   0.56669   0.56926   0.57378
 Alpha virt. eigenvalues --    0.57549   0.57760   0.57917   0.58073   0.58215
 Alpha virt. eigenvalues --    0.58723   0.58856   0.59097   0.59500   0.59651
 Alpha virt. eigenvalues --    0.59789   0.60292   0.60320   0.60615   0.60736
 Alpha virt. eigenvalues --    0.60996   0.61543   0.61628   0.61755   0.62131
 Alpha virt. eigenvalues --    0.62381   0.62435   0.62830   0.63335   0.63422
 Alpha virt. eigenvalues --    0.63797   0.64072   0.64115   0.64373   0.64580
 Alpha virt. eigenvalues --    0.64899   0.65023   0.65510   0.65663   0.65803
 Alpha virt. eigenvalues --    0.66202   0.66280   0.66658   0.66666   0.66884
 Alpha virt. eigenvalues --    0.67215   0.67328   0.67731   0.67948   0.68423
 Alpha virt. eigenvalues --    0.68822   0.68926   0.69270   0.69463   0.69705
 Alpha virt. eigenvalues --    0.69876   0.70212   0.70626   0.70847   0.71241
 Alpha virt. eigenvalues --    0.71405   0.71807   0.71942   0.72065   0.72273
 Alpha virt. eigenvalues --    0.72549   0.73137   0.73319   0.73437   0.73903
 Alpha virt. eigenvalues --    0.74077   0.74546   0.74758   0.74897   0.75153
 Alpha virt. eigenvalues --    0.75339   0.75810   0.76142   0.76550   0.76900
 Alpha virt. eigenvalues --    0.77358   0.77895   0.78164   0.78226   0.78456
 Alpha virt. eigenvalues --    0.78854   0.79079   0.79158   0.79990   0.80403
 Alpha virt. eigenvalues --    0.80445   0.80718   0.80964   0.81358   0.81975
 Alpha virt. eigenvalues --    0.82066   0.82402   0.82598   0.82787   0.83104
 Alpha virt. eigenvalues --    0.83466   0.83760   0.84185   0.84329   0.84587
 Alpha virt. eigenvalues --    0.84982   0.85371   0.85688   0.86012   0.86375
 Alpha virt. eigenvalues --    0.86464   0.86622   0.86924   0.87248   0.87426
 Alpha virt. eigenvalues --    0.88129   0.88481   0.88762   0.88840   0.89564
 Alpha virt. eigenvalues --    0.89638   0.89859   0.90112   0.90653   0.91128
 Alpha virt. eigenvalues --    0.91271   0.91728   0.91773   0.92112   0.92434
 Alpha virt. eigenvalues --    0.93167   0.93321   0.93496   0.93558   0.93898
 Alpha virt. eigenvalues --    0.94219   0.94402   0.94469   0.94605   0.94865
 Alpha virt. eigenvalues --    0.95016   0.95595   0.95875   0.96253   0.96562
 Alpha virt. eigenvalues --    0.96892   0.97215   0.97284   0.97480   0.97833
 Alpha virt. eigenvalues --    0.98021   0.98110   0.98287   0.98999   0.99168
 Alpha virt. eigenvalues --    0.99325   0.99599   0.99906   1.00190   1.00385
 Alpha virt. eigenvalues --    1.00603   1.01098   1.01376   1.01650   1.02184
 Alpha virt. eigenvalues --    1.02325   1.02651   1.03277   1.03564   1.03817
 Alpha virt. eigenvalues --    1.04042   1.04139   1.04811   1.05210   1.05287
 Alpha virt. eigenvalues --    1.05543   1.05816   1.06301   1.06380   1.07076
 Alpha virt. eigenvalues --    1.07773   1.08189   1.08340   1.08772   1.09021
 Alpha virt. eigenvalues --    1.09149   1.09486   1.09718   1.10105   1.10311
 Alpha virt. eigenvalues --    1.10650   1.11183   1.11498   1.11921   1.12501
 Alpha virt. eigenvalues --    1.12755   1.13206   1.13271   1.13739   1.14343
 Alpha virt. eigenvalues --    1.14430   1.15368   1.15654   1.15873   1.15903
 Alpha virt. eigenvalues --    1.16243   1.16690   1.17155   1.17565   1.17722
 Alpha virt. eigenvalues --    1.17947   1.18300   1.18869   1.19322   1.19787
 Alpha virt. eigenvalues --    1.20081   1.20380   1.20460   1.20808   1.21215
 Alpha virt. eigenvalues --    1.22106   1.22359   1.23009   1.23338   1.23856
 Alpha virt. eigenvalues --    1.24268   1.24467   1.24933   1.25127   1.25426
 Alpha virt. eigenvalues --    1.25436   1.26152   1.26724   1.26859   1.27170
 Alpha virt. eigenvalues --    1.27754   1.28252   1.28387   1.28815   1.29215
 Alpha virt. eigenvalues --    1.29635   1.29745   1.30196   1.30387   1.30816
 Alpha virt. eigenvalues --    1.31031   1.31700   1.32208   1.32690   1.32777
 Alpha virt. eigenvalues --    1.32989   1.33747   1.33836   1.34650   1.34742
 Alpha virt. eigenvalues --    1.35223   1.35346   1.35851   1.36483   1.36800
 Alpha virt. eigenvalues --    1.37090   1.37441   1.37717   1.37928   1.38333
 Alpha virt. eigenvalues --    1.38810   1.39137   1.39473   1.40109   1.40292
 Alpha virt. eigenvalues --    1.40739   1.41583   1.41853   1.42433   1.42730
 Alpha virt. eigenvalues --    1.42794   1.43523   1.43667   1.43973   1.44133
 Alpha virt. eigenvalues --    1.44482   1.44544   1.45514   1.46147   1.46386
 Alpha virt. eigenvalues --    1.46664   1.46936   1.47503   1.47717   1.47856
 Alpha virt. eigenvalues --    1.48581   1.48802   1.48935   1.49300   1.49841
 Alpha virt. eigenvalues --    1.49875   1.50563   1.50984   1.51248   1.51689
 Alpha virt. eigenvalues --    1.51904   1.52222   1.52362   1.52632   1.52754
 Alpha virt. eigenvalues --    1.52899   1.53605   1.53672   1.53906   1.54040
 Alpha virt. eigenvalues --    1.54366   1.54623   1.54879   1.55340   1.55509
 Alpha virt. eigenvalues --    1.55741   1.56155   1.56252   1.56421   1.56708
 Alpha virt. eigenvalues --    1.56728   1.57158   1.57685   1.58132   1.58528
 Alpha virt. eigenvalues --    1.58689   1.59122   1.59275   1.59679   1.59774
 Alpha virt. eigenvalues --    1.60246   1.60571   1.60754   1.61066   1.61266
 Alpha virt. eigenvalues --    1.61571   1.61883   1.62265   1.62388   1.62556
 Alpha virt. eigenvalues --    1.62818   1.63018   1.63246   1.63722   1.63785
 Alpha virt. eigenvalues --    1.64111   1.64318   1.64663   1.64851   1.65101
 Alpha virt. eigenvalues --    1.65589   1.65779   1.66099   1.66593   1.66719
 Alpha virt. eigenvalues --    1.66945   1.67035   1.67541   1.68065   1.68154
 Alpha virt. eigenvalues --    1.68473   1.68695   1.69600   1.69648   1.69936
 Alpha virt. eigenvalues --    1.70237   1.70504   1.70969   1.71408   1.71662
 Alpha virt. eigenvalues --    1.72155   1.72183   1.72482   1.72715   1.72905
 Alpha virt. eigenvalues --    1.73264   1.73852   1.73943   1.74327   1.74557
 Alpha virt. eigenvalues --    1.74939   1.75116   1.75349   1.75455   1.75990
 Alpha virt. eigenvalues --    1.76215   1.76504   1.77076   1.77370   1.78030
 Alpha virt. eigenvalues --    1.78461   1.78890   1.79154   1.79658   1.80190
 Alpha virt. eigenvalues --    1.80525   1.81109   1.81791   1.82115   1.82686
 Alpha virt. eigenvalues --    1.82804   1.83241   1.83560   1.84287   1.84525
 Alpha virt. eigenvalues --    1.85265   1.85359   1.85766   1.86176   1.86637
 Alpha virt. eigenvalues --    1.86866   1.87008   1.87388   1.87557   1.87867
 Alpha virt. eigenvalues --    1.88215   1.88358   1.88695   1.89277   1.89819
 Alpha virt. eigenvalues --    1.90093   1.90284   1.90765   1.91012   1.91545
 Alpha virt. eigenvalues --    1.91562   1.92133   1.92262   1.92359   1.92974
 Alpha virt. eigenvalues --    1.93671   1.94050   1.94404   1.95028   1.95675
 Alpha virt. eigenvalues --    1.96198   1.96371   1.97073   1.97566   1.97757
 Alpha virt. eigenvalues --    1.98089   1.98257   1.98742   1.99033   1.99280
 Alpha virt. eigenvalues --    1.99925   2.00050   2.00246   2.01028   2.01159
 Alpha virt. eigenvalues --    2.01677   2.02126   2.02262   2.02620   2.03031
 Alpha virt. eigenvalues --    2.03581   2.04157   2.04283   2.04727   2.04826
 Alpha virt. eigenvalues --    2.05863   2.06002   2.06534   2.07021   2.07499
 Alpha virt. eigenvalues --    2.07872   2.08043   2.08541   2.08941   2.09730
 Alpha virt. eigenvalues --    2.09902   2.09972   2.10537   2.10893   2.11243
 Alpha virt. eigenvalues --    2.11870   2.11947   2.12328   2.12613   2.12702
 Alpha virt. eigenvalues --    2.13131   2.13502   2.13828   2.14260   2.14441
 Alpha virt. eigenvalues --    2.14789   2.15263   2.15719   2.16268   2.16596
 Alpha virt. eigenvalues --    2.17081   2.17367   2.17749   2.17908   2.18038
 Alpha virt. eigenvalues --    2.18588   2.18810   2.19193   2.19591   2.19792
 Alpha virt. eigenvalues --    2.20142   2.20794   2.21052   2.21113   2.21721
 Alpha virt. eigenvalues --    2.22290   2.22468   2.23224   2.23423   2.24018
 Alpha virt. eigenvalues --    2.24531   2.25141   2.25266   2.25877   2.26218
 Alpha virt. eigenvalues --    2.26402   2.26532   2.26954   2.27550   2.27840
 Alpha virt. eigenvalues --    2.27936   2.28308   2.28849   2.29221   2.29661
 Alpha virt. eigenvalues --    2.29872   2.30421   2.30588   2.30925   2.31912
 Alpha virt. eigenvalues --    2.32301   2.32623   2.32688   2.33025   2.33776
 Alpha virt. eigenvalues --    2.34213   2.34635   2.35177   2.35280   2.35833
 Alpha virt. eigenvalues --    2.36082   2.36938   2.36981   2.37298   2.37760
 Alpha virt. eigenvalues --    2.38319   2.38755   2.39105   2.39144   2.39857
 Alpha virt. eigenvalues --    2.40056   2.40516   2.40835   2.41434   2.41462
 Alpha virt. eigenvalues --    2.42025   2.42388   2.42794   2.42917   2.43191
 Alpha virt. eigenvalues --    2.43995   2.44238   2.44441   2.44846   2.45072
 Alpha virt. eigenvalues --    2.45505   2.45816   2.45986   2.46442   2.47144
 Alpha virt. eigenvalues --    2.47719   2.47970   2.48444   2.48573   2.49497
 Alpha virt. eigenvalues --    2.49557   2.49960   2.50400   2.50800   2.51259
 Alpha virt. eigenvalues --    2.52693   2.52808   2.53080   2.53147   2.53596
 Alpha virt. eigenvalues --    2.54110   2.54353   2.54873   2.55092   2.55327
 Alpha virt. eigenvalues --    2.55692   2.56307   2.56540   2.56758   2.57123
 Alpha virt. eigenvalues --    2.57200   2.57637   2.58445   2.58460   2.58940
 Alpha virt. eigenvalues --    2.59072   2.59481   2.59736   2.59806   2.60244
 Alpha virt. eigenvalues --    2.60675   2.60793   2.61032   2.61393   2.61608
 Alpha virt. eigenvalues --    2.61771   2.62511   2.62722   2.62970   2.63388
 Alpha virt. eigenvalues --    2.63528   2.63649   2.64153   2.64694   2.65072
 Alpha virt. eigenvalues --    2.65462   2.65724   2.65838   2.66254   2.66747
 Alpha virt. eigenvalues --    2.67007   2.67104   2.67380   2.67864   2.68078
 Alpha virt. eigenvalues --    2.68443   2.68888   2.69246   2.69739   2.70081
 Alpha virt. eigenvalues --    2.70550   2.71007   2.71532   2.72101   2.72227
 Alpha virt. eigenvalues --    2.72683   2.72925   2.73137   2.73757   2.74319
 Alpha virt. eigenvalues --    2.74590   2.75024   2.75176   2.75394   2.75797
 Alpha virt. eigenvalues --    2.76295   2.76602   2.76774   2.76934   2.77229
 Alpha virt. eigenvalues --    2.77909   2.78006   2.78424   2.78649   2.79171
 Alpha virt. eigenvalues --    2.79591   2.79905   2.80261   2.80708   2.81045
 Alpha virt. eigenvalues --    2.81385   2.81757   2.81978   2.82420   2.82843
 Alpha virt. eigenvalues --    2.83757   2.83924   2.84297   2.84862   2.84957
 Alpha virt. eigenvalues --    2.85387   2.85772   2.86022   2.86293   2.86769
 Alpha virt. eigenvalues --    2.86957   2.87348   2.87425   2.88101   2.88566
 Alpha virt. eigenvalues --    2.88983   2.89318   2.89402   2.89816   2.90365
 Alpha virt. eigenvalues --    2.90705   2.91008   2.91395   2.91933   2.92021
 Alpha virt. eigenvalues --    2.92463   2.92586   2.92856   2.92961   2.93258
 Alpha virt. eigenvalues --    2.93396   2.93729   2.94206   2.94248   2.94746
 Alpha virt. eigenvalues --    2.94898   2.95311   2.95511   2.95805   2.96081
 Alpha virt. eigenvalues --    2.96443   2.96949   2.97066   2.97298   2.97785
 Alpha virt. eigenvalues --    2.98372   2.98684   2.98738   2.99077   2.99424
 Alpha virt. eigenvalues --    2.99741   2.99815   3.00526   3.00593   3.00643
 Alpha virt. eigenvalues --    3.01418   3.01631   3.01765   3.02222   3.02583
 Alpha virt. eigenvalues --    3.02789   3.02959   3.03318   3.04032   3.04215
 Alpha virt. eigenvalues --    3.04755   3.04805   3.04910   3.05499   3.05618
 Alpha virt. eigenvalues --    3.05772   3.06086   3.06634   3.06822   3.07144
 Alpha virt. eigenvalues --    3.07456   3.07796   3.07933   3.08150   3.08654
 Alpha virt. eigenvalues --    3.08764   3.09293   3.09609   3.09811   3.10174
 Alpha virt. eigenvalues --    3.10349   3.10671   3.11044   3.11296   3.11814
 Alpha virt. eigenvalues --    3.12329   3.12422   3.12804   3.13039   3.13166
 Alpha virt. eigenvalues --    3.13279   3.13728   3.13833   3.14201   3.14656
 Alpha virt. eigenvalues --    3.14792   3.15275   3.15405   3.15673   3.15925
 Alpha virt. eigenvalues --    3.16360   3.16603   3.16708   3.17095   3.17518
 Alpha virt. eigenvalues --    3.18079   3.18405   3.18561   3.18617   3.19087
 Alpha virt. eigenvalues --    3.19338   3.19502   3.19785   3.19992   3.20403
 Alpha virt. eigenvalues --    3.20776   3.21054   3.21450   3.21861   3.22011
 Alpha virt. eigenvalues --    3.22342   3.22470   3.22741   3.23202   3.23530
 Alpha virt. eigenvalues --    3.23760   3.23812   3.24281   3.24465   3.24960
 Alpha virt. eigenvalues --    3.25197   3.25450   3.25683   3.25887   3.26012
 Alpha virt. eigenvalues --    3.26361   3.26722   3.27045   3.27169   3.27421
 Alpha virt. eigenvalues --    3.27571   3.27623   3.28477   3.28601   3.28880
 Alpha virt. eigenvalues --    3.29097   3.29267   3.29757   3.29939   3.30428
 Alpha virt. eigenvalues --    3.30635   3.31058   3.31404   3.31666   3.31703
 Alpha virt. eigenvalues --    3.31868   3.31962   3.32448   3.32488   3.33261
 Alpha virt. eigenvalues --    3.33441   3.33698   3.33878   3.34071   3.34184
 Alpha virt. eigenvalues --    3.34348   3.34688   3.34930   3.35466   3.35616
 Alpha virt. eigenvalues --    3.35764   3.36269   3.36515   3.36894   3.37194
 Alpha virt. eigenvalues --    3.37455   3.37937   3.37993   3.38098   3.38691
 Alpha virt. eigenvalues --    3.38956   3.39155   3.39306   3.39481   3.40041
 Alpha virt. eigenvalues --    3.40130   3.40355   3.40629   3.40772   3.41193
 Alpha virt. eigenvalues --    3.41411   3.41621   3.42109   3.42520   3.42742
 Alpha virt. eigenvalues --    3.43053   3.43480   3.44072   3.44166   3.44505
 Alpha virt. eigenvalues --    3.44636   3.44940   3.45008   3.45428   3.45556
 Alpha virt. eigenvalues --    3.46199   3.46276   3.47004   3.47390   3.47693
 Alpha virt. eigenvalues --    3.47871   3.48188   3.48324   3.48934   3.49104
 Alpha virt. eigenvalues --    3.49339   3.49605   3.50058   3.50391   3.50951
 Alpha virt. eigenvalues --    3.51122   3.51266   3.51649   3.52290   3.52705
 Alpha virt. eigenvalues --    3.52922   3.53350   3.53588   3.54165   3.54454
 Alpha virt. eigenvalues --    3.54998   3.55131   3.55590   3.56134   3.56372
 Alpha virt. eigenvalues --    3.56789   3.57459   3.57788   3.58011   3.58391
 Alpha virt. eigenvalues --    3.58504   3.58663   3.59131   3.59235   3.59461
 Alpha virt. eigenvalues --    3.60279   3.60893   3.61532   3.61784   3.62019
 Alpha virt. eigenvalues --    3.62482   3.63102   3.63625   3.63780   3.63982
 Alpha virt. eigenvalues --    3.64576   3.64815   3.65111   3.65557   3.66089
 Alpha virt. eigenvalues --    3.66123   3.66532   3.66902   3.67569   3.67806
 Alpha virt. eigenvalues --    3.67994   3.68286   3.68667   3.68988   3.69780
 Alpha virt. eigenvalues --    3.69904   3.70753   3.71342   3.71642   3.71821
 Alpha virt. eigenvalues --    3.72123   3.72227   3.72457   3.73319   3.73649
 Alpha virt. eigenvalues --    3.73721   3.74113   3.74614   3.74694   3.74966
 Alpha virt. eigenvalues --    3.75158   3.75913   3.76376   3.76890   3.77674
 Alpha virt. eigenvalues --    3.77894   3.78235   3.78999   3.79264   3.79670
 Alpha virt. eigenvalues --    3.79968   3.80421   3.81724   3.81998   3.82434
 Alpha virt. eigenvalues --    3.82740   3.83331   3.83526   3.84192   3.84404
 Alpha virt. eigenvalues --    3.84961   3.85705   3.86036   3.86417   3.86843
 Alpha virt. eigenvalues --    3.87646   3.88019   3.88610   3.88720   3.89424
 Alpha virt. eigenvalues --    3.89970   3.90573   3.91225   3.91557   3.92262
 Alpha virt. eigenvalues --    3.92656   3.92819   3.93934   3.94159   3.94529
 Alpha virt. eigenvalues --    3.94886   3.95426   3.96399   3.96684   3.97533
 Alpha virt. eigenvalues --    3.97596   3.98072   3.98403   3.98900   3.99055
 Alpha virt. eigenvalues --    3.99500   4.00119   4.00313   4.01922   4.02021
 Alpha virt. eigenvalues --    4.02214   4.02948   4.03412   4.04467   4.04668
 Alpha virt. eigenvalues --    4.05289   4.06154   4.06390   4.07210   4.07535
 Alpha virt. eigenvalues --    4.08635   4.09127   4.09314   4.09593   4.10139
 Alpha virt. eigenvalues --    4.11264   4.11805   4.12393   4.12698   4.13393
 Alpha virt. eigenvalues --    4.13993   4.14313   4.14612   4.15053   4.15405
 Alpha virt. eigenvalues --    4.15666   4.16547   4.17077   4.17347   4.18081
 Alpha virt. eigenvalues --    4.18397   4.19023   4.19653   4.20067   4.20458
 Alpha virt. eigenvalues --    4.20786   4.21575   4.22267   4.22715   4.23070
 Alpha virt. eigenvalues --    4.23558   4.24205   4.24632   4.25246   4.25484
 Alpha virt. eigenvalues --    4.26126   4.26450   4.27140   4.27617   4.27917
 Alpha virt. eigenvalues --    4.29135   4.29305   4.29741   4.30196   4.30478
 Alpha virt. eigenvalues --    4.31173   4.31406   4.31898   4.33473   4.33817
 Alpha virt. eigenvalues --    4.34518   4.34673   4.35131   4.35953   4.36848
 Alpha virt. eigenvalues --    4.37163   4.37412   4.38060   4.38212   4.38913
 Alpha virt. eigenvalues --    4.39102   4.40051   4.40309   4.41133   4.41551
 Alpha virt. eigenvalues --    4.41892   4.42886   4.43248   4.43578   4.44121
 Alpha virt. eigenvalues --    4.44746   4.45277   4.45664   4.46367   4.46556
 Alpha virt. eigenvalues --    4.47519   4.47765   4.47991   4.48692   4.48867
 Alpha virt. eigenvalues --    4.49287   4.50105   4.50705   4.51276   4.52209
 Alpha virt. eigenvalues --    4.53002   4.53580   4.54572   4.56523   4.57235
 Alpha virt. eigenvalues --    4.57673   4.58419   4.59140   4.59483   4.60042
 Alpha virt. eigenvalues --    4.61065   4.61677   4.62469   4.62897   4.63369
 Alpha virt. eigenvalues --    4.63979   4.64148   4.64804   4.65844   4.66535
 Alpha virt. eigenvalues --    4.67233   4.67831   4.68157   4.68216   4.69508
 Alpha virt. eigenvalues --    4.69740   4.69989   4.71239   4.72013   4.72614
 Alpha virt. eigenvalues --    4.73323   4.73706   4.74636   4.74855   4.75374
 Alpha virt. eigenvalues --    4.75927   4.76313   4.76537   4.77733   4.78623
 Alpha virt. eigenvalues --    4.78788   4.79466   4.79698   4.79927   4.80817
 Alpha virt. eigenvalues --    4.81789   4.82218   4.83454   4.83953   4.84259
 Alpha virt. eigenvalues --    4.84606   4.85400   4.86072   4.86984   4.87567
 Alpha virt. eigenvalues --    4.88388   4.89035   4.89750   4.89986   4.90309
 Alpha virt. eigenvalues --    4.91324   4.92106   4.92844   4.93196   4.93557
 Alpha virt. eigenvalues --    4.94029   4.95888   4.96221   4.97089   4.97887
 Alpha virt. eigenvalues --    4.98605   4.99291   4.99354   5.00494   5.01262
 Alpha virt. eigenvalues --    5.02853   5.03792   5.04143   5.04721   5.05504
 Alpha virt. eigenvalues --    5.05920   5.06345   5.06617   5.07431   5.07868
 Alpha virt. eigenvalues --    5.08971   5.09565   5.10407   5.11227   5.13066
 Alpha virt. eigenvalues --    5.13745   5.14496   5.16648   5.17161   5.17590
 Alpha virt. eigenvalues --    5.18040   5.18408   5.19237   5.20013   5.20435
 Alpha virt. eigenvalues --    5.20634   5.21547   5.21761   5.22725   5.23546
 Alpha virt. eigenvalues --    5.24082   5.24733   5.25750   5.26309   5.26974
 Alpha virt. eigenvalues --    5.27071   5.28212   5.29108   5.30894   5.31061
 Alpha virt. eigenvalues --    5.31787   5.33047   5.33329   5.34313   5.34684
 Alpha virt. eigenvalues --    5.36726   5.38245   5.39485   5.39626   5.39784
 Alpha virt. eigenvalues --    5.40095   5.40302   5.41892   5.42650   5.44939
 Alpha virt. eigenvalues --    5.45948   5.46881   5.48353   5.48616   5.49849
 Alpha virt. eigenvalues --    5.50596   5.50668   5.52096   5.52341   5.53344
 Alpha virt. eigenvalues --    5.57670   5.58196   5.58274   5.59939   5.60776
 Alpha virt. eigenvalues --    5.61525   5.62060   5.62660   5.64896   5.65332
 Alpha virt. eigenvalues --    5.65526   5.66244   5.66561   5.68319   5.70952
 Alpha virt. eigenvalues --    5.72560   5.76478   5.77216   5.77544   5.78272
 Alpha virt. eigenvalues --    5.78681   5.79161   5.81925   5.82861   5.84969
 Alpha virt. eigenvalues --    5.85873   5.88807   5.90346   5.90892   5.92796
 Alpha virt. eigenvalues --    5.94141   5.97715   5.98250   5.99821   6.00493
 Alpha virt. eigenvalues --    6.01272   6.04469   6.05537   6.11570   6.12007
 Alpha virt. eigenvalues --    6.12287   6.14082   6.15824   6.16116   6.17650
 Alpha virt. eigenvalues --    6.18515   6.23006   6.26007   6.28059   6.30555
 Alpha virt. eigenvalues --    6.31391   6.32591   6.33468   6.37958   6.38637
 Alpha virt. eigenvalues --    6.40659   6.42702   6.44491   6.44965   6.47404
 Alpha virt. eigenvalues --    6.47893   6.48260   6.51252   6.53251   6.54130
 Alpha virt. eigenvalues --    6.54814   6.58300   6.64249   6.64506   6.69038
 Alpha virt. eigenvalues --    6.72629   6.75481   6.77340   6.83322   6.88420
 Alpha virt. eigenvalues --    6.92413   6.93483   6.93624   6.95738   7.01916
 Alpha virt. eigenvalues --    7.10576   7.12370   7.12392   7.15571   7.26478
 Alpha virt. eigenvalues --    7.27978   7.31208   7.36519   7.63111   8.82116
 Alpha virt. eigenvalues --   22.35235  22.41918  22.51064  22.54785  22.55451
 Alpha virt. eigenvalues --   22.59670  22.61602  22.62719  22.63332  22.73159
 Alpha virt. eigenvalues --   22.75984  22.77120  22.80006  22.89578  22.90345
 Alpha virt. eigenvalues --   22.96838  22.98685  22.99481  23.00332  23.08233
 Alpha virt. eigenvalues --   23.10225  23.15067  23.20335  23.24325  23.27910
 Alpha virt. eigenvalues --   23.32092  23.34110  23.40722  23.45392  23.51272
 Alpha virt. eigenvalues --   23.53329  23.57324  23.58875  23.61578  23.75671
 Alpha virt. eigenvalues --   23.80787  23.81899  23.92822  32.47230  32.74352
 Alpha virt. eigenvalues --   32.96632  33.00104  33.04173  33.20960  43.93987
 Alpha virt. eigenvalues --   43.95306  43.95948  43.96872  44.10659  44.32695
  Beta  occ. eigenvalues -- -256.37477 -30.13934 -25.96886 -25.96734 -25.96185
  Beta  occ. eigenvalues --  -19.27300 -19.25761 -19.23402 -19.18981 -19.18778
  Beta  occ. eigenvalues --  -19.18269 -14.44778 -14.39851 -14.38275 -14.38180
  Beta  occ. eigenvalues --  -14.38029 -14.37461 -10.36044 -10.35449 -10.27991
  Beta  occ. eigenvalues --  -10.26972 -10.25603 -10.25352 -10.25246 -10.25132
  Beta  occ. eigenvalues --  -10.25036 -10.25009 -10.24936 -10.24776 -10.24520
  Beta  occ. eigenvalues --  -10.24427 -10.24199 -10.23789 -10.23611 -10.23439
  Beta  occ. eigenvalues --  -10.23411 -10.22991 -10.22963 -10.22922 -10.22896
  Beta  occ. eigenvalues --  -10.22552 -10.22483 -10.22461 -10.22313 -10.22210
  Beta  occ. eigenvalues --  -10.22040 -10.22009 -10.21994 -10.21849 -10.21586
  Beta  occ. eigenvalues --  -10.21480 -10.21373 -10.21019 -10.20821 -10.20671
  Beta  occ. eigenvalues --   -3.46657  -2.22101  -2.21751  -2.21674  -1.16837
  Beta  occ. eigenvalues --   -1.16491  -1.16317  -1.06816  -1.04046  -1.02521
  Beta  occ. eigenvalues --   -0.98731  -0.97776  -0.97684  -0.96720  -0.92351
  Beta  occ. eigenvalues --   -0.85343  -0.84505  -0.83959  -0.83267  -0.82782
  Beta  occ. eigenvalues --   -0.81688  -0.81436  -0.81337  -0.79896  -0.79469
  Beta  occ. eigenvalues --   -0.77764  -0.76950  -0.75857  -0.74765  -0.73762
  Beta  occ. eigenvalues --   -0.73325  -0.72767  -0.72210  -0.71957  -0.70179
  Beta  occ. eigenvalues --   -0.69986  -0.69824  -0.67877  -0.66494  -0.65875
  Beta  occ. eigenvalues --   -0.65549  -0.64908  -0.62325  -0.61354  -0.60142
  Beta  occ. eigenvalues --   -0.59834  -0.58316  -0.57167  -0.57108  -0.55754
  Beta  occ. eigenvalues --   -0.55205  -0.54304  -0.54227  -0.52952  -0.52848
  Beta  occ. eigenvalues --   -0.52441  -0.51893  -0.51037  -0.50810  -0.49996
  Beta  occ. eigenvalues --   -0.49291  -0.49090  -0.48928  -0.48570  -0.48422
  Beta  occ. eigenvalues --   -0.48284  -0.47109  -0.46557  -0.46319  -0.46006
  Beta  occ. eigenvalues --   -0.45926  -0.45257  -0.45123  -0.44915  -0.44750
  Beta  occ. eigenvalues --   -0.44329  -0.44317  -0.44146  -0.44039  -0.43868
  Beta  occ. eigenvalues --   -0.43713  -0.43549  -0.43265  -0.43213  -0.43002
  Beta  occ. eigenvalues --   -0.42796  -0.42509  -0.42340  -0.42017  -0.41710
  Beta  occ. eigenvalues --   -0.41647  -0.41106  -0.40598  -0.40407  -0.39989
  Beta  occ. eigenvalues --   -0.39667  -0.39564  -0.39370  -0.39241  -0.38830
  Beta  occ. eigenvalues --   -0.38672  -0.38502  -0.38250  -0.38077  -0.37599
  Beta  occ. eigenvalues --   -0.37304  -0.37085  -0.36900  -0.36329  -0.36028
  Beta  occ. eigenvalues --   -0.35478  -0.35237  -0.33750  -0.33437  -0.33158
  Beta  occ. eigenvalues --   -0.33000  -0.32923  -0.31712  -0.30689  -0.29026
  Beta  occ. eigenvalues --   -0.28876  -0.28681  -0.28180  -0.27398  -0.26682
  Beta  occ. eigenvalues --   -0.25527  -0.25109  -0.24586  -0.24177  -0.23321
  Beta  occ. eigenvalues --   -0.21657  -0.19548  -0.19280  -0.17667
  Beta virt. eigenvalues --   -0.09461  -0.07604  -0.06236  -0.04841  -0.04277
  Beta virt. eigenvalues --   -0.02444  -0.01930  -0.01166  -0.00520   0.00129
  Beta virt. eigenvalues --    0.00521   0.00755   0.01632   0.02283   0.03399
  Beta virt. eigenvalues --    0.03669   0.04065   0.04598   0.04830   0.04935
  Beta virt. eigenvalues --    0.05539   0.05658   0.06697   0.06925   0.07280
  Beta virt. eigenvalues --    0.07798   0.07921   0.08040   0.08242   0.08750
  Beta virt. eigenvalues --    0.08975   0.09225   0.09525   0.09655   0.10098
  Beta virt. eigenvalues --    0.10685   0.10915   0.10930   0.11214   0.11481
  Beta virt. eigenvalues --    0.11758   0.12030   0.12172   0.12585   0.12924
  Beta virt. eigenvalues --    0.12933   0.13153   0.13513   0.13554   0.13769
  Beta virt. eigenvalues --    0.13918   0.14024   0.14434   0.14535   0.14750
  Beta virt. eigenvalues --    0.14929   0.15154   0.15317   0.15430   0.15658
  Beta virt. eigenvalues --    0.15981   0.16449   0.16574   0.16762   0.16970
  Beta virt. eigenvalues --    0.17239   0.17417   0.17823   0.17976   0.18461
  Beta virt. eigenvalues --    0.18527   0.18611   0.18719   0.18906   0.19284
  Beta virt. eigenvalues --    0.19513   0.19604   0.19906   0.20162   0.20289
  Beta virt. eigenvalues --    0.20850   0.20985   0.21330   0.21371   0.21629
  Beta virt. eigenvalues --    0.21914   0.22039   0.22219   0.22582   0.22743
  Beta virt. eigenvalues --    0.23116   0.23600   0.23674   0.23804   0.24156
  Beta virt. eigenvalues --    0.24499   0.24591   0.25022   0.25100   0.25402
  Beta virt. eigenvalues --    0.25534   0.26051   0.26325   0.26441   0.26632
  Beta virt. eigenvalues --    0.26907   0.27027   0.27249   0.27399   0.27974
  Beta virt. eigenvalues --    0.28085   0.28322   0.28435   0.28683   0.28720
  Beta virt. eigenvalues --    0.28982   0.29247   0.29476   0.29842   0.30074
  Beta virt. eigenvalues --    0.30351   0.30636   0.30816   0.30938   0.31043
  Beta virt. eigenvalues --    0.31524   0.31598   0.31852   0.31993   0.32142
  Beta virt. eigenvalues --    0.32658   0.32863   0.33121   0.33527   0.33712
  Beta virt. eigenvalues --    0.33881   0.34207   0.34579   0.34793   0.34999
  Beta virt. eigenvalues --    0.35379   0.35523   0.35729   0.36116   0.36281
  Beta virt. eigenvalues --    0.36602   0.36849   0.36939   0.37308   0.37506
  Beta virt. eigenvalues --    0.37739   0.37862   0.38017   0.38187   0.38323
  Beta virt. eigenvalues --    0.38614   0.38966   0.39069   0.39208   0.39510
  Beta virt. eigenvalues --    0.39658   0.39767   0.39912   0.40008   0.40449
  Beta virt. eigenvalues --    0.40905   0.41053   0.41123   0.41361   0.41484
  Beta virt. eigenvalues --    0.41645   0.41696   0.41897   0.42083   0.42224
  Beta virt. eigenvalues --    0.42466   0.42702   0.42885   0.43177   0.43295
  Beta virt. eigenvalues --    0.43334   0.43649   0.43872   0.44131   0.44247
  Beta virt. eigenvalues --    0.44419   0.44687   0.44793   0.44816   0.44961
  Beta virt. eigenvalues --    0.45220   0.45570   0.45885   0.46102   0.46211
  Beta virt. eigenvalues --    0.46459   0.46562   0.46625   0.46961   0.47152
  Beta virt. eigenvalues --    0.47227   0.47404   0.47631   0.47818   0.47963
  Beta virt. eigenvalues --    0.47989   0.48189   0.48440   0.48612   0.48775
  Beta virt. eigenvalues --    0.49047   0.49401   0.49571   0.49738   0.49894
  Beta virt. eigenvalues --    0.50102   0.50294   0.50506   0.50862   0.51047
  Beta virt. eigenvalues --    0.51249   0.51343   0.51657   0.51778   0.51865
  Beta virt. eigenvalues --    0.52106   0.52224   0.52596   0.52937   0.53299
  Beta virt. eigenvalues --    0.53479   0.53872   0.54050   0.54171   0.54331
  Beta virt. eigenvalues --    0.54444   0.54769   0.54826   0.54936   0.55164
  Beta virt. eigenvalues --    0.55627   0.55695   0.55839   0.55892   0.56345
  Beta virt. eigenvalues --    0.56702   0.56846   0.57134   0.57496   0.57746
  Beta virt. eigenvalues --    0.57959   0.58109   0.58354   0.58422   0.58839
  Beta virt. eigenvalues --    0.59072   0.59312   0.59738   0.59868   0.60120
  Beta virt. eigenvalues --    0.60429   0.60621   0.60799   0.60913   0.61277
  Beta virt. eigenvalues --    0.61775   0.61897   0.61926   0.62369   0.62706
  Beta virt. eigenvalues --    0.62976   0.63235   0.63532   0.63775   0.63981
  Beta virt. eigenvalues --    0.64273   0.64426   0.64678   0.64901   0.65133
  Beta virt. eigenvalues --    0.65239   0.65832   0.65860   0.66075   0.66404
  Beta virt. eigenvalues --    0.66521   0.66811   0.66889   0.67043   0.67444
  Beta virt. eigenvalues --    0.67549   0.68025   0.68111   0.68622   0.69039
  Beta virt. eigenvalues --    0.69183   0.69524   0.69687   0.69858   0.70045
  Beta virt. eigenvalues --    0.70313   0.70824   0.71005   0.71487   0.71518
  Beta virt. eigenvalues --    0.71964   0.72246   0.72342   0.72401   0.72784
  Beta virt. eigenvalues --    0.73334   0.73586   0.73777   0.74080   0.74244
  Beta virt. eigenvalues --    0.74799   0.75094   0.75189   0.75328   0.75470
  Beta virt. eigenvalues --    0.76024   0.76390   0.76823   0.77217   0.77515
  Beta virt. eigenvalues --    0.78051   0.78298   0.78495   0.78616   0.78986
  Beta virt. eigenvalues --    0.79217   0.79378   0.80277   0.80536   0.80600
  Beta virt. eigenvalues --    0.81033   0.81199   0.81527   0.82122   0.82293
  Beta virt. eigenvalues --    0.82684   0.82900   0.83034   0.83194   0.83552
  Beta virt. eigenvalues --    0.84018   0.84313   0.84515   0.84723   0.85170
  Beta virt. eigenvalues --    0.85691   0.85915   0.86267   0.86513   0.86700
  Beta virt. eigenvalues --    0.86765   0.87072   0.87407   0.87603   0.88438
  Beta virt. eigenvalues --    0.88648   0.88926   0.89123   0.89790   0.90036
  Beta virt. eigenvalues --    0.90201   0.90286   0.90713   0.91244   0.91540
  Beta virt. eigenvalues --    0.91825   0.92007   0.92402   0.92581   0.93316
  Beta virt. eigenvalues --    0.93517   0.93675   0.94050   0.94120   0.94379
  Beta virt. eigenvalues --    0.94560   0.94880   0.95000   0.95063   0.95448
  Beta virt. eigenvalues --    0.95696   0.96025   0.96370   0.96951   0.97060
  Beta virt. eigenvalues --    0.97375   0.97499   0.97988   0.98132   0.98156
  Beta virt. eigenvalues --    0.98388   0.98748   0.99238   0.99428   0.99476
  Beta virt. eigenvalues --    0.99971   1.00240   1.00588   1.00647   1.00793
  Beta virt. eigenvalues --    1.01415   1.01685   1.01837   1.02430   1.02630
  Beta virt. eigenvalues --    1.02804   1.03506   1.03721   1.04063   1.04266
  Beta virt. eigenvalues --    1.04636   1.05115   1.05409   1.05594   1.05929
  Beta virt. eigenvalues --    1.06065   1.06504   1.06625   1.07312   1.08079
  Beta virt. eigenvalues --    1.08416   1.08535   1.08937   1.09151   1.09470
  Beta virt. eigenvalues --    1.09779   1.09901   1.10280   1.10617   1.10943
  Beta virt. eigenvalues --    1.11563   1.11786   1.12327   1.12679   1.12940
  Beta virt. eigenvalues --    1.13317   1.13599   1.13995   1.14501   1.14850
  Beta virt. eigenvalues --    1.15543   1.15876   1.15986   1.16310   1.16453
  Beta virt. eigenvalues --    1.16948   1.17396   1.17719   1.18002   1.18461
  Beta virt. eigenvalues --    1.18701   1.19198   1.19512   1.19899   1.20278
  Beta virt. eigenvalues --    1.20520   1.20610   1.21113   1.21339   1.22239
  Beta virt. eigenvalues --    1.22556   1.23205   1.23456   1.24051   1.24431
  Beta virt. eigenvalues --    1.24683   1.25103   1.25379   1.25547   1.25848
  Beta virt. eigenvalues --    1.26290   1.26860   1.26988   1.27269   1.28016
  Beta virt. eigenvalues --    1.28552   1.28763   1.28938   1.29571   1.29902
  Beta virt. eigenvalues --    1.29980   1.30491   1.30591   1.31055   1.31819
  Beta virt. eigenvalues --    1.32143   1.32403   1.32909   1.33003   1.33147
  Beta virt. eigenvalues --    1.33937   1.34028   1.34836   1.34900   1.35456
  Beta virt. eigenvalues --    1.35547   1.36256   1.36619   1.37141   1.37324
  Beta virt. eigenvalues --    1.37603   1.37850   1.38168   1.38502   1.38949
  Beta virt. eigenvalues --    1.39288   1.39761   1.40353   1.40594   1.41124
  Beta virt. eigenvalues --    1.41827   1.42103   1.42663   1.42961   1.43091
  Beta virt. eigenvalues --    1.43742   1.44134   1.44371   1.44648   1.44957
  Beta virt. eigenvalues --    1.45173   1.45807   1.46308   1.46558   1.46877
  Beta virt. eigenvalues --    1.47225   1.47905   1.47932   1.48215   1.48896
  Beta virt. eigenvalues --    1.49134   1.49415   1.49659   1.50099   1.50174
  Beta virt. eigenvalues --    1.50774   1.51222   1.51456   1.51822   1.52117
  Beta virt. eigenvalues --    1.52395   1.52529   1.52872   1.53017   1.53250
  Beta virt. eigenvalues --    1.53868   1.53984   1.54194   1.54374   1.54506
  Beta virt. eigenvalues --    1.54865   1.55083   1.55542   1.55826   1.55933
  Beta virt. eigenvalues --    1.56285   1.56438   1.56573   1.56875   1.57119
  Beta virt. eigenvalues --    1.57414   1.58148   1.58456   1.58683   1.58983
  Beta virt. eigenvalues --    1.59306   1.59755   1.59937   1.60303   1.60494
  Beta virt. eigenvalues --    1.60779   1.61056   1.61416   1.61505   1.61844
  Beta virt. eigenvalues --    1.62001   1.62384   1.62678   1.62882   1.62934
  Beta virt. eigenvalues --    1.63313   1.63669   1.63861   1.63992   1.64267
  Beta virt. eigenvalues --    1.64683   1.64994   1.65152   1.65427   1.65866
  Beta virt. eigenvalues --    1.66050   1.66408   1.66753   1.67064   1.67229
  Beta virt. eigenvalues --    1.67582   1.67729   1.68320   1.68625   1.68840
  Beta virt. eigenvalues --    1.69228   1.69944   1.70064   1.70313   1.70569
  Beta virt. eigenvalues --    1.70737   1.71289   1.71538   1.71824   1.72336
  Beta virt. eigenvalues --    1.72520   1.72590   1.72927   1.73284   1.73602
  Beta virt. eigenvalues --    1.74069   1.74166   1.74558   1.74775   1.75126
  Beta virt. eigenvalues --    1.75291   1.75553   1.75992   1.76120   1.76582
  Beta virt. eigenvalues --    1.76660   1.77323   1.77579   1.78216   1.78719
  Beta virt. eigenvalues --    1.79110   1.79212   1.79822   1.80279   1.80643
  Beta virt. eigenvalues --    1.81415   1.82032   1.82492   1.82957   1.83196
  Beta virt. eigenvalues --    1.83498   1.84130   1.84511   1.85027   1.85443
  Beta virt. eigenvalues --    1.85635   1.86098   1.86406   1.86897   1.87189
  Beta virt. eigenvalues --    1.87341   1.87490   1.87855   1.88100   1.88448
  Beta virt. eigenvalues --    1.88705   1.88949   1.89730   1.90250   1.90310
  Beta virt. eigenvalues --    1.90443   1.91099   1.91304   1.91643   1.91718
  Beta virt. eigenvalues --    1.92295   1.92473   1.92804   1.93282   1.93762
  Beta virt. eigenvalues --    1.94291   1.94734   1.95181   1.95919   1.96322
[...]
  1594. RY*(   2) H  66                  0.00008     1.74570   
  1595. RY*(   3) H  66                  0.00004     2.16167   
  1596. RY*(   4) H  66                  0.00002     2.41616   
  1597. RY*(   5) H  66                  0.00001     2.62466   
  1598. RY*(   1) H  67                  0.00028     1.19209   
  1599. RY*(   2) H  67                  0.00009     1.86569   
  1600. RY*(   3) H  67                  0.00003     1.95806   
  1601. RY*(   4) H  67                  0.00002     2.07095   
  1602. RY*(   5) H  67                  0.00000     2.92212   
  1603. RY*(   1) H  68                  0.00078     0.63947   
  1604. RY*(   2) H  68                  0.00013     2.23766   
  1605. RY*(   3) H  68                  0.00011     2.22564   
  1606. RY*(   4) H  68                  0.00006     3.08357   
  1607. RY*(   5) H  68                  0.00000     3.20675   
  1608. RY*(   1) H  69                  0.00034     1.07588   
  1609. RY*(   2) H  69                  0.00008     1.68470   
  1610. RY*(   3) H  69                  0.00004     2.15819   
  1611. RY*(   4) H  69                  0.00002     1.98647   
  1612. RY*(   5) H  69                  0.00000     3.01578   
  1613. RY*(   1) H  70                  0.00024     1.19172   
  1614. RY*(   2) H  70                  0.00009     1.81604   
  1615. RY*(   3) H  70                  0.00002     1.87481   
  1616. RY*(   4) H  70                  0.00003     2.20153   
  1617. RY*(   5) H  70                  0.00000     2.92599   
  1618. RY*(   1) H  71                  0.00028     1.16510   
  1619. RY*(   2) H  71                  0.00008     1.70387   
  1620. RY*(   3) H  71                  0.00003     2.20845   
  1621. RY*(   4) H  71                  0.00002     1.92946   
  1622. RY*(   5) H  71                  0.00000     3.01392   
  1623. RY*(   1) H  72                  0.00023     1.76563   
  1624. RY*(   2) H  72                  0.00014     0.86465   
  1625. RY*(   3) H  72                  0.00001     2.34817   
  1626. RY*(   4) H  72                  0.00001     2.43489   
  1627. RY*(   5) H  72                  0.00001     2.79153   
  1628. RY*(   1) H  73                  0.00023     1.80393   
  1629. RY*(   2) H  73                  0.00015     0.89374   
  1630. RY*(   3) H  73                  0.00001     2.48548   
  1631. RY*(   4) H  73                  0.00002     2.30082   
  1632. RY*(   5) H  73                  0.00001     2.76816   
  1633. RY*(   1) H  74                  0.00037     0.83438   
  1634. RY*(   2) H  74                  0.00012     2.39062   
  1635. RY*(   3) H  74                  0.00004     2.81789   
  1636. RY*(   4) H  74                  0.00003     2.22060   
  1637. RY*(   5) H  74                  0.00000     3.10740   
  1638. RY*(   1) H  75                  0.00064     0.68423   
  1639. RY*(   2) H  75                  0.00014     2.27930   
  1640. RY*(   3) H  75                  0.00010     2.25232   
  1641. RY*(   4) H  75                  0.00006     3.09958   
  1642. RY*(   5) H  75                  0.00000     3.24022   
  1643. RY*(   1) H  76                  0.00047     1.03092   
  1644. RY*(   2) H  76                  0.00008     1.68894   
  1645. RY*(   3) H  76                  0.00004     2.18477   
  1646. RY*(   4) H  76                  0.00002     2.35922   
  1647. RY*(   5) H  76                  0.00001     2.70240   
  1648. RY*(   1) H  77                  0.00030     1.17325   
  1649. RY*(   2) H  77                  0.00009     1.82308   
  1650. RY*(   3) H  77                  0.00003     2.01209   
  1651. RY*(   4) H  77                  0.00002     2.13102   
  1652. RY*(   5) H  77                  0.00000     2.90394   
  1653. RY*(   1) H  78                  0.00037     1.03331   
  1654. RY*(   2) H  78                  0.00007     1.82971   
  1655. RY*(   3) H  78                  0.00004     1.98813   
  1656. RY*(   4) H  78                  0.00003     2.18097   
  1657. RY*(   5) H  78                  0.00000     2.95339   
  1658. RY*(   1) H  79                  0.00097     0.74426   
  1659. RY*(   2) H  79                  0.00015     2.22759   
  1660. RY*(   3) H  79                  0.00011     2.24373   
  1661. RY*(   4) H  79                  0.00006     3.07196   
  1662. RY*(   5) H  79                  0.00001     3.26228   
  1663. RY*(   1) H  80                  0.00044     1.70522   
  1664. RY*(   2) H  80                  0.00008     2.51603   
  1665. RY*(   3) H  80                  0.00007     2.51064   
  1666. RY*(   4) H  80                  0.00003     1.57702   
  1667. RY*(   5) H  80                  0.00000     2.90273   
  1668. RY*(   1) H  81                  0.00074     0.55432   
  1669. RY*(   2) H  81                  0.00008     2.34123   
  1670. RY*(   3) H  81                  0.00009     2.71320   
  1671. RY*(   4) H  81                  0.00006     2.42311   
  1672. RY*(   5) H  81                  0.00000     3.08001   
  1673. RY*(   1) H  82                  0.00028     1.33497   
  1674. RY*(   2) H  82                  0.00007     2.28108   
  1675. RY*(   3) H  82                  0.00005     1.57982   
  1676. RY*(   4) H  82                  0.00002     2.39382   
  1677. RY*(   5) H  82                  0.00001     3.04103   
  1678. RY*(   1) H  83                  0.00036     1.28041   
  1679. RY*(   2) H  83                  0.00006     1.52024   
  1680. RY*(   3) H  83                  0.00006     2.48960   
  1681. RY*(   4) H  83                  0.00003     2.41135   
  1682. RY*(   5) H  83                  0.00001     3.01450   
  1683. RY*(   1) H  84                  0.00056     0.98989   
  1684. RY*(   2) H  84                  0.00035     1.90591   
  1685. RY*(   3) H  84                  0.00023     1.89436   
  1686. RY*(   4) H  84                  0.00012     2.18050   
  1687. RY*(   5) H  84                  0.00000     3.18843   
  1688. RY*(   1) H  85                  0.00047     1.55070   
  1689. RY*(   2) H  85                  0.00007     1.51734   
  1690. RY*(   3) H  85                  0.00008     2.72210   
  1691. RY*(   4) H  85                  0.00005     2.31652   
  1692. RY*(   5) H  85                  0.00000     3.06297   
  1693. RY*(   1) H  86                  0.00046     1.70193   
  1694. RY*(   2) H  86                  0.00009     2.69817   
  1695. RY*(   3) H  86                  0.00007     2.04019   
  1696. RY*(   4) H  86                  0.00005     1.65699   
  1697. RY*(   5) H  86                  0.00000     3.09164   
  1698. RY*(   1) H  87                  0.00037     0.97530   
  1699. RY*(   2) H  87                  0.00007     1.81755   
  1700. RY*(   3) H  87                  0.00006     2.37736   
  1701. RY*(   4) H  87                  0.00003     2.51558   
  1702. RY*(   5) H  87                  0.00001     2.78027   
  1703. RY*(   1) H  88                  0.00038     1.09448   
  1704. RY*(   2) H  88                  0.00006     1.63944   
  1705. RY*(   3) H  88                  0.00006     2.39847   
  1706. RY*(   4) H  88                  0.00004     2.46813   
  1707. RY*(   5) H  88                  0.00001     3.02667   
  1708. RY*(   1) H  89                  0.00045     1.65826   
  1709. RY*(   2) H  89                  0.00032     2.19290   
  1710. RY*(   3) H  89                  0.00015     2.30366   
  1711. RY*(   4) H  89                  0.00008     1.46035   
  1712. RY*(   5) H  89                  0.00000     3.22456   
  1727. BD*(   1)Fe   7 - N  12          0.04088     0.41622   
  1728. BD*(   1)Fe   7 - N  23          0.07134     0.33499   
  1729. BD*(   1)Fe   7 - N  31          0.03994     0.40208   
  1730. BD*(   1)Fe   7 - O  50          0.11656     0.17628  1728(g),177(g),1729(g)
                                                    1727(g),178(g),770(v),979(v)
                                                    485(v),1187(r),771(v),772(v)
                                                    354(g),1823(g),353(g)
                                                    1474(g),179(g),357(g),980(v)
                                                    1822(g),484(v),1722(r)
                                                    1726(r),1724(r),1723(r)
  1731. BD*(   1) C   8 - C  13          0.01092     0.56681   
  1732. BD*(   2) C   8 - C  13          0.21419     0.03885  1803(v),1751(v),379(g)
                                                    1736(r),511(g),512(g)
                                                    1726(r)
  1733. BD*(   1) C   8 - C  43          0.01059     0.59833   
  1734. BD*(   1) C   8 - H  79          0.00830     0.43135   
  1735. BD*(   1) C   9 - C  16          0.01045     0.59534   
  1736. BD*(   2) C   9 - C  16          0.19429     0.04833  1751(v),1769(v),405(g)
                                                    1732(r),591(g)
  1737. BD*(   1) C   9 - C  24          0.00965     0.56415   
  1738. BD*(   1) C   9 - H  64          0.00708     0.44490   
  1739. BD*(   1) C  10 - C  27          0.01061     0.55911   
  1740. BD*(   1) C  10 - C  32          0.00990     0.57070   
  1741. BD*(   2) C  10 - C  32          0.19415     0.04570  1790(v),1787(v),185(v)
                                                    1781(r),431(g),1007(g)
                                                    1745(r)
  1742. BD*(   1) C  10 - H  68          0.00614     0.44806   
  1743. BD*(   1) C  11 - C  35          0.01072     0.56878   
  1744. BD*(   1) C  11 - C  40          0.01103     0.58677   
  1745. BD*(   2) C  11 - C  40          0.19289     0.05350  1805(r),1787(v),1803(v)
                                                    188(r),457(g),1215(g)
                                                    1741(r)
  1746. BD*(   1) C  11 - H  75          0.00667     0.45037   
  1747. BD*(   1) N  12 - C  13          0.01283     0.48845   
  1748. BD*(   1) N  12 - C  16          0.01445     0.46404   
  1749. BD*(   1) C  13 - C  14          0.01751     0.46169   
  1750. BD*(   1) C  14 - C  15          0.01128     0.59020   
  1751. BD*(   2) C  14 - C  15          0.12963     0.05867  1736(v),1732(v),1758(v)
                                                    1756(v),1759(v),1755(v)
                                                    1765(r)
  1752. BD*(   1) C  14 - C  18          0.01158     0.41240   
  1753. BD*(   1) C  15 - C  16          0.01564     0.51964   
  1754. BD*(   1) C  15 - C  17          0.00910     0.38724   
  1755. BD*(   1) C  17 - H  65          0.00347     0.40158   
  1756. BD*(   1) C  17 - H  66          0.00489     0.40049   
  1757. BD*(   1) C  17 - H  67          0.00319     0.40626   
  1758. BD*(   1) C  18 - C  19          0.01093     0.30434   
  1759. BD*(   1) C  18 - H  85          0.00810     0.39620   
  1760. BD*(   1) C  18 - H  86          0.00760     0.38337   
  1761. BD*(   1) C  19 - C  20          0.03602     0.34886   
  1762. BD*(   1) C  19 - H  87          0.00590     0.37634   
  1763. BD*(   1) C  19 - H  88          0.00550     0.39049   
  1764. BD*(   1) C  20 - O  21          0.02300     0.52168   
  1765. BD*(   2) C  20 - O  21          0.10385     0.03384  1764(g),1758(v),1762(v)
                                                    1767(v)
  1766. BD*(   1) C  20 - O  22          0.03967     0.44520   
  1767. BD*(   1) O  22 - H  89          0.00650     0.37309   
  1768. BD*(   1) N  23 - C  24          0.01339     0.46218   
  1769. BD*(   2) N  23 - C  24          0.31027    -0.00051  1736(v),185(v),1773(v)
                                                    797(g),179(v),178(v),770(g)
                                                    405(v),1723(r)
  1770. BD*(   1) N  23 - C  27          0.01243     0.51690   
  1771. BD*(   1) C  24 - C  25          0.01702     0.45820   
  1772. BD*(   1) C  25 - C  26          0.01066     0.64600   
  1773. BD*(   2) C  25 - C  26          0.13067     0.07328  1781(v),1769(v),185(v)
                                                    1778(v),1782(v),1777(v)
                                                    849(g)
  1774. BD*(   1) C  25 - C  28          0.00905     0.40644   
  1775. BD*(   1) C  26 - C  27          0.01847     0.49524   
  1776. BD*(   1) C  26 - C  29          0.01402     0.41619   
  1777. BD*(   1) C  28 - H  61          0.00329     0.40857   
  1778. BD*(   1) C  28 - H  62          0.00538     0.40746   
  1779. BD*(   1) C  28 - H  63          0.00415     0.42404   
  1780. BD*(   1) C  29 - C  30          0.00254     0.58992   
  1781. BD*(   2) C  29 - C  30          0.03252     0.04339   
  1782. BD*(   1) C  29 - H  58          0.00913     0.44239   
  1783. BD*(   1) C  30 - H  59          0.00426     0.44123   
  1784. BD*(   1) C  30 - H  60          0.00414     0.44218   
  1785. BD*(   1) N  31 - C  32          0.01423     0.47230   
  1786. BD*(   1) N  31 - C  35          0.01259     0.53276   
  1787. BD*(   2) N  31 - C  35          0.25619     0.01879  1745(v),1741(v),1790(v)
                                                    179(v),1083(g),457(v)
                                                    1082(g)
  1788. BD*(   1) C  32 - C  33          0.01660     0.50042   
  1789. BD*(   1) C  33 - C  34          0.01057     0.63831   
  1790. BD*(   2) C  33 - C  34          0.13467     0.07647  1741(v),1787(v),186(v)
                                                    1794(v),1057(g),1031(g)
                                                    1795(v)
  1791. BD*(   1) C  33 - C  36          0.00859     0.41218   
  1792. BD*(   1) C  34 - C  35          0.01572     0.49036   
  1793. BD*(   1) C  34 - C  37          0.01167     0.45379   
  1794. BD*(   1) C  36 - H  69          0.00396     0.41213   
  1795. BD*(   1) C  36 - H  70          0.00288     0.41116   
  1796. BD*(   1) C  36 - H  71          0.00279     0.41729   
  1797. BD*(   1) C  37 - C  38          0.00315     0.69752   
  1798. BD*(   1) C  37 - H  74          0.00444     0.44536   
  1799. BD*(   1) C  38 - H  72          0.00310     0.44443   
  1800. BD*(   1) C  38 - H  73          0.00285     0.44199   
  1801. BD*(   1) N  39 - C  40          0.01287     0.52426   
  1802. BD*(   1) N  39 - C  43          0.01352     0.49207   
  1803. BD*(   2) N  39 - C  43          0.30973     0.00692  1732(v),1805(v),1745(v)
                                                    179(r),91(g),1291(g),379(v)
                                                    1186(g),1723(r)
  1804. BD*(   1) C  41 - C  42          0.01243     0.58019   
  1805. BD*(   2) C  41 - C  42          0.12408     0.06120  1745(r),1803(v),1812(v)
                                                    1809(v)
  1806. BD*(   1) C  41 - C  44          0.00900     0.40307   
  1807. BD*(   1) C  42 - C  43          0.01659     0.49593   
  1808. BD*(   1) C  42 - C  45          0.01092     0.40262   
  1809. BD*(   1) C  44 - H  76          0.00506     0.40732   
  1810. BD*(   1) C  44 - H  77          0.00349     0.40901   
  1811. BD*(   1) C  44 - H  78          0.00327     0.41219   
  1812. BD*(   1) C  45 - C  46          0.00920     0.31818   
  1813. BD*(   1) C  45 - H  80          0.00718     0.41094   
  1814. BD*(   1) C  45 - H  81          0.00718     0.39627   
  1815. BD*(   1) C  46 - C  47          0.03287     0.36229   
  1816. BD*(   1) C  46 - H  82          0.00500     0.39529   
  1817. BD*(   1) C  46 - H  83          0.00581     0.39499   
  1818. BD*(   1) C  47 - O  48          0.02032     0.54040   
  1819. BD*(   2) C  47 - O  48          0.09567     0.00420   
  1820. BD*(   1) C  47 - O  49          0.03708     0.47367   
  1821. BD*(   1) O  49 - H  84          0.00653     0.37861   
  1822. BD*(   1) O  50 - O  51          0.01048     0.29436   
  1823. BD*(   2) O  50 - O  51          0.01510     0.12029   
       -------------------------------
              Total Lewis  162.16957  ( 97.0163%)
        Valence non-Lewis    4.64529  (  2.7790%)
        Rydberg non-Lewis    0.34221  (  0.2047%)
       -------------------------------
            Total unit  2  167.15706  (100.0000%)
           Charge unit  2    1.84294
 1\1\GINC-NODE636\SP\UPBE1PBE\def2TZVP\C38H38Fe1N6O6(5)\ZHARTOVSKA\09-S
 ep-2022\0\\# PBE1PBE/def2TZVP empiricaldispersion=GD3BJ scf=maxcycle=9
 99 geom=check pop=nbo\\1a6m_II_Q\\0,5\C,0,9.503,29.450001,2.528\C,0,10
 .705,29.33,3.406\N,0,10.972,30.184,4.45\C,0,11.799,28.49,3.348\C,0,12.
 167,29.837,4.966\N,0,12.684,28.843,4.36\Fe,0,14.515,27.975,4.75\C,0,15
 .904,31.066,5.05\C,0,13.782,28.006001,8.099\C,0,13.251,24.816999,4.509
 \C,0,15.381,27.908001,1.499\N,0,14.784,29.263,6.257\C,0,15.32,30.527,6
 .185\C,0,15.292,31.177,7.5\C,0,14.744,30.264,8.355\C,0,14.411,29.112,7
 .593\C,0,14.477,30.427999,9.835\C,0,15.687,32.583,7.757\C,0,14.458,33.
 523998,7.976\C,0,13.561,33.534,6.775\O,0,12.4,33.104,6.842\O,0,14.05,3
 3.974998,5.683\N,0,13.664,26.679001,6.009\C,0,13.423,26.879,7.368\C,0,
 12.776,25.68,7.928\C,0,12.644,24.799999,6.938\C,0,13.185,25.434,5.76\C
 ,0,12.364,25.563999,9.367\C,0,12.101,23.393,6.989\C,0,12.33544484,22.6
 1511205,8.07366262\N,0,14.311,26.643999,3.267\C,0,13.834,25.344,3.365\
 C,0,14.05,24.629,2.134\C,0,14.671,25.493,1.316\C,0,14.805,26.752001,2.
 018\C,0,13.686,23.193001,1.908\C,0,15.24,25.292999,-0.044\C,0,15.157,2
 4.198999,-0.766\N,0,15.389,29.280001,3.475\C,0,15.682,29.076,2.164\C,0
 ,16.362,30.195,1.608\C,0,16.57,31.069,2.646\C,0,15.937,30.499001,3.808
 \C,0,16.872,30.306,0.198\C,0,17.386999,32.328999,2.587\C,0,18.889,32.0
 16998,2.859\C,0,19.761999,33.226002,2.747\O,0,20.186001,33.643002,1.64
 6\O,0,20.149,33.749001,3.83\O,0,16.131001,27.289,5.175\O,0,16.805,26.6
 32,4.375\H,0,11.94184704,27.69901919,2.64171105\H,0,12.62895569,30.338
 83216,5.79041581\H,0,10.38508529,30.92828811,4.76869474\H,0,9.73434852
 ,29.07413045,1.55326968\H,0,8.69748747,28.88367956,2.94672377\H,0,9.21
 5918,30.478175,2.45491005\H,0,11.53086522,23.00951256,6.16876606\H,0,1
 3.27179907,22.68136634,8.58722968\H,0,11.58419761,21.93467384,8.416491
 2\H,0,13.10623071,26.01994782,9.98837287\H,0,11.42601091,26.05847705,9
 .51041517\H,0,12.26612081,24.53089676,9.62780533\H,0,13.54740649,28.00
 926417,9.14296132\H,0,15.27398744,30.98498077,10.28163445\H,0,13.55411
 414,30.95101626,9.97512362\H,0,14.41405079,29.46399557,10.2950378\H,0,
 12.8102471,23.84567497,4.42434476\H,0,14.44685187,22.56317411,2.319488
 16\H,0,12.75187891,22.98243469,2.38547212\H,0,13.59936539,23.00806006,
 0.85767086\H,0,15.97636758,23.51132912,-0.79143422\H,0,14.27001464,23.
 99540787,-1.32876782\H,0,15.76680459,26.11871544,-0.47477754\H,0,15.61
 901743,27.88665359,0.45602733\H,0,17.81483795,29.80622709,0.11936397\H
 ,0,16.17113032,29.85274244,-0.47150674\H,0,16.99298414,31.338026,-0.05
 731388\H,0,16.37558298,32.02047975,5.15713501\H,0,17.28776525,32.76919
 021,1.6168019\H,0,17.02978184,33.0164586,3.32503469\H,0,19.2221061,31.
 28493154,2.15329537\H,0,18.98394539,31.61366703,3.84551381\H,0,21.0874
 5141,33.83695656,4.01213394\H,0,16.30498504,32.61373062,8.62995482\H,0
 ,16.25121482,32.94114726,6.92136122\H,0,14.80676715,34.51848324,8.1610
 9612\H,0,13.90293047,33.18349889,8.82503367\H,0,15.00189445,34.0216135
 2,5.56757057\\Version=ES64L-G16RevA.03\State=5-A\HF=-3512.4855513\S2=6
 .057547\S2-1=0.\S2A=6.001241\RMSD=2.136e-09\Dipole=-1.4309269,0.995743
 5,0.7545897\Quadrupole=0.8983921,-4.1105947,3.2122025,12.0323302,15.49
 18571,19.0506033\PG=C01 [X(C38H38Fe1N6O6)]\\@


 YOU WILL NEVER "FIND" TIME FOR ANYTHING.
 IF YOU WANT TIME, YOU MUST MAKE IT.

                        -- CHARLES BIXTON
 Job cpu time:       5 days 22 hours  5 minutes 24.4 seconds.
 Elapsed time:       1 days 11 hours 36 minutes 55.3 seconds.
 File lengths (MBytes):  RWF=   3053 Int=      0 D2E=      0 Chk=    255 Scr=      1
 Normal termination of Gaussian 16 at Fri Sep  9 23:22:14 2022.
