 Entering Gaussian System, Link 0=g16
 Input=/net/homes/chemie/zhartovska/work/BioModel/Konrad/1gu2/1gu2.com
 Output=/net/homes/chemie/zhartovska/work/BioModel/Konrad/1gu2/1gu2.log
 Initial command:
 /afs/math/software/gaussian/g16.A03/g16/l1.exe "/scratch/zhartovska_gaussian.YvmQEe0/Gau-8003.inp" -scrdir="/scratch/zhartovska_gaussian.YvmQEe0/"
 Entering Link 1 = /afs/math/software/gaussian/g16.A03/g16/l1.exe PID=      8004.
  
 Copyright (c) 1988,1990,1992,1993,1995,1998,2003,2009,2016,
            Gaussian, Inc.  All Rights Reserved.
  
 This is part of the Gaussian(R) 16 program.  It is based on
 the Gaussian(R) 09 system (copyright 2009, Gaussian, Inc.),
 the Gaussian(R) 03 system (copyright 2003, Gaussian, Inc.),
 the Gaussian(R) 98 system (copyright 1998, Gaussian, Inc.),
 the Gaussian(R) 94 system (copyright 1995, Gaussian, Inc.),
 the Gaussian 92(TM) system (copyright 1992, Gaussian, Inc.),
 the Gaussian 90(TM) system (copyright 1990, Gaussian, Inc.),
 the Gaussian 88(TM) system (copyright 1988, Gaussian, Inc.),
 the Gaussian 86(TM) system (copyright 1986, Carnegie Mellon
 University), and the Gaussian 82(TM) system (copyright 1983,
 Carnegie Mellon University). Gaussian is a federally registered
 trademark of Gaussian, Inc.
  
 This software contains proprietary and confidential information,
 including trade secrets, belonging to Gaussian, Inc.
  
 This software is provided under written license and may be
 used, copied, transmitted, or stored only in accord with that
 written license.
  
 The following legend is applicable only to US Government
 contracts under FAR:
  
                    RESTRICTED RIGHTS LEGEND
  
 Use, reproduction and disclosure by the US Government is
 subject to restrictions as set forth in subparagraphs (a)
 and (c) of the Commercial Computer Software - Restricted
 Rights clause in FAR 52.227-19.
  
 Gaussian, Inc.
 340 Quinnipiac St., Bldg. 40, Wallingford CT 06492
  
  
 ---------------------------------------------------------------
 Warning -- This program may not be used in any manner that
 competes with the business of Gaussian, Inc. or will provide
 assistance to any competitor of Gaussian, Inc.  The licensee
 of this program is prohibited from giving any competitor of
 Gaussian, Inc. access to this program.  By using this program,
 the user acknowledges that Gaussian, Inc. is engaged in the
 business of creating and licensing software in the field of
 computational chemistry and represents and warrants to the
 licensee that it is not a competitor of Gaussian, Inc. and that
 it will not use this program in any manner prohibited above.
 ---------------------------------------------------------------
  

 Cite this work as:
 Gaussian 16, Revision A.03,
 M. J. Frisch, G. W. Trucks, H. B. Schlegel, G. E. Scuseria, 
 M. A. Robb, J. R. Cheeseman, G. Scalmani, V. Barone, 
 G. A. Petersson, H. Nakatsuji, X. Li, M. Caricato, A. V. Marenich, 
 J. Bloino, B. G. Janesko, R. Gomperts, B. Mennucci, H. P. Hratchian, 
 J. V. Ortiz, A. F. Izmaylov, J. L. Sonnenberg, D. Williams-Young, 
 F. Ding, F. Lipparini, F. Egidi, J. Goings, B. Peng, A. Petrone, 
 T. Henderson, D. Ranasinghe, V. G. Zakrzewski, J. Gao, N. Rega, 
 G. Zheng, W. Liang, M. Hada, M. Ehara, K. Toyota, R. Fukuda, 
 J. Hasegawa, M. Ishida, T. Nakajima, Y. Honda, O. Kitao, H. Nakai, 
 T. Vreven, K. Throssell, J. A. Montgomery, Jr., J. E. Peralta, 
 F. Ogliaro, M. J. Bearpark, J. J. Heyd, E. N. Brothers, K. N. Kudin, 
 V. N. Staroverov, T. A. Keith, R. Kobayashi, J. Normand, 
 K. Raghavachari, A. P. Rendell, J. C. Burant, S. S. Iyengar, 
 J. Tomasi, M. Cossi, J. M. Millam, M. Klene, C. Adamo, R. Cammi, 
 J. W. Ochterski, R. L. Martin, K. Morokuma, O. Farkas, 
 J. B. Foresman, and D. J. Fox, Gaussian, Inc., Wallingford CT, 2016.
 
 ******************************************
 Gaussian 16:  ES64L-G16RevA.03 25-Dec-2016
                20-Oct-2022 
 ******************************************
 %nprocs=12
 Will use up to   12 processors via shared memory.
 %mem=16GB
 %chk=1gu2_II_S.chk
 ---------------------------------------------------------------------
 # polar def2tzvp empiricaldispersion=gd3bj int=grid=ultrafine pbe1pbe
 ---------------------------------------------------------------------
 1/38=1,172=1/1;
 2/12=2,17=6,18=5,40=1/2;
 3/5=44,7=101,11=2,25=1,30=1,74=-13,75=-5,124=41/1,2,3;
 4//1;
 5/5=2,38=5,98=1/2;
 8/6=4,10=90,11=11/1;
 10/6=1,13=10/2;
 6/7=2,8=2,9=2,10=2,28=1/1;
 99/5=1,9=1/99;
 ---------
 1gu2_II_S
 ---------
 Symbolic Z-matrix:
 Charge =  0 Multiplicity = 1
 C                     7.741     3.503     14.891 
 C                     9.027     3.472     14.126 
 N                     9.297     4.319     13.076 
 C                     10.117    2.702     14.195 
 C                     10.507    4.054     12.555 
 N                     11.039    3.068     13.231 
 C                     16.892   -0.274     9.982 
 C                     16.144    0.552     10.979 
 N                     16.707    1.622     11.66 
 C                     14.864    0.516     11.388 
 C                     15.795    2.193     12.429 
 N                     14.639    1.534     12.28 
 Fe                    12.834    2.272     12.755 
 C                     13.059    3.697     9.65 
 C                     11.207   -0.399     11.392 
 C                     13.062    0.642     15.771 
 C                     14.138    5.119     14.157 
 N                     12.194    1.775     10.922 
 C                     12.388    2.489     9.727 
 C                     11.81     1.765     8.629 
 C                     11.25     0.648     9.123 
 C                     11.521    0.629     10.54 
 C                     10.495   -0.467     8.356 
 C                     11.841    2.227     7.162 
 C                     13.046    1.656     6.392 
 C                     13.086    2.124     4.978 
 O                     14.201    2.26      4.429 
 O                     12.037    2.373     4.361 
 N                     12.262    0.47      13.431 
 C                     11.628   -0.511     12.721 
 C                     11.497   -1.703     13.549 
 C                     12.043   -1.418     14.765 
 C                     12.495   -0.047     14.694 
 C                     10.865   -3.035     13.109 
 C                     12.161   -2.307     16.025 
 C                     12.955   -3.58      15.74 
 N                     13.459    2.785     14.588 
 C                     13.44     1.975     15.725 
 C                     13.845    2.753     16.876 
 C                     14.127    4.016     16.437 
 C                     13.9      4.038     15.019 
 C                     13.855    2.166     18.302 
 C                     14.506    5.269     17.227 
 C                     15.76236   5.26707   18.11759 
 N                     13.456    4.028     12.049 
 C                     14.006    5.084     12.789 
 C                     14.516    6.093     11.899 
 C                     14.383    5.614     10.626 
 C                     13.61     4.395     10.712 
 C                     15.14     7.432     12.331 
 C                     15.002    6.242     9.351 
 C                     14.241    7.503     8.87 
 C                     13.115    7.209     7.901 
 O                     12.172    8.037     7.738 
 O                     13.146    6.139     7.238 
 H                     12.36873   8.95893   7.55651 
 H                     12.07696   2.73196   3.47153 
 H                     13.9467   1.95988   6.88321 
 H                     12.98888   0.58757   6.40192 
 H                     11.88902   3.29562   7.13668 
 H                     10.94017   1.90911   6.67998 
 H                     13.83311   8.00099   9.72471 
 H                     14.938    8.15968   8.39265 
 H                     16.01706   6.51027   9.55735 
 H                     14.99029   5.51314   8.56772 
 H                     13.16185   4.13295   8.67826 
 H                     16.08323   7.56007   11.84232 
 H                     14.48597   8.23425   12.05983 
 H                     15.2846   7.43254   13.39118 
 H                     14.44649   6.04332   14.599 
 H                     14.73095   2.49882   18.81857 
 H                     12.98368   2.49451   18.82905 
 H                     13.85731   1.09738   18.24781 
 H                     13.89831   6.14721   17.16107 
 H                     16.55858   5.77257   17.61221 
 H                     15.5481   5.76948   19.03769 
 H                     16.05334   4.25782   18.32167 
 H                     13.21317   0.10796   16.68579 
 H                     13.88672  -3.54425   16.26489 
 H                     12.39415  -4.43077   16.06642 
 H                     13.14044  -3.65691   14.689 
 H                     11.7392  -2.06097   16.97708 
 H                     11.51504  -3.84274   13.37339 
 H                     9.92195  -3.16123   13.59851 
 H                     10.71849  -3.02735   12.04911 
 H                     10.58729  -1.1818    11.00718 
 H                     11.08419  -1.36017   8.35382 
 H                     9.55828  -0.65881   8.83627 
 H                     10.32123  -0.15188   7.34833 
 H                     17.8269  -0.58062   10.40253 
 H                     16.31394  -1.13827   9.72943 
 H                     17.07042   0.30581   9.10059 
 H                     17.65923   1.91701   11.58115 
 H                     15.95423   3.03956   13.06373 
 H                     14.13318  -0.19673   11.06734 
 H                     7.88146   4.04477   15.80295 
 H                     6.98761   3.98398   14.30282 
 H                     7.43453   2.50241   15.11415 
 H                     10.25751   1.90974   14.90033 
 H                     8.67881   5.03258   12.74637 
 H                     10.95828   4.56235   11.72866 
 
 Stoichiometry    C42H46FeN8O4
 Framework group  C1[X(C42H46FeN8O4)]
 Deg. of freedom   297
 Full point group                 C1      NOp   1
 Largest Abelian subgroup         C1      NOp   1
 Largest concise Abelian subgroup C1      NOp   1
                         Standard orientation:                         
 ---------------------------------------------------------------------
 Center     Atomic      Atomic             Coordinates (Angstroms)
 Number     Number       Type             X           Y           Z
 ---------------------------------------------------------------------
      1          6           0        2.704838    0.332952    5.429888
      2          6           0        1.943968    0.427499    4.144540
      3          7           0        0.679164    0.961893    4.057920
      4          6           0        2.207117    0.042068    2.892359
      5          6           0        0.223858    0.894646    2.795407
      6          7           0        1.148496    0.340614    2.053592
      7          6           0       -1.126458   -2.086096   -4.648514
      8          6           0       -0.401806   -1.237368   -3.653360
      9          7           0       -0.094027    0.098372   -3.869468
     10          6           0        0.039895   -1.497936   -2.410791
     11          6           0        0.495629    0.600977   -2.797628
     12          7           0        0.589738   -0.362080   -1.872165
     13         26           0        0.877555   -0.038764    0.087662
     14          6           0       -2.518303    0.397594    0.091212
     15          6           0        0.437434   -3.332987    0.858068
     16          6           0        4.235937   -0.565323   -0.411482
     17          6           0        1.312088    3.339739   -0.322616
     18          7           0       -0.698353   -1.215969    0.471330
     19          6           0       -2.058724   -0.867290    0.414153
     20          6           0       -2.867787   -2.015415    0.715964
     21          6           0       -2.041923   -3.042121    0.978924
     22          6           0       -0.694765   -2.561899    0.788550
     23          6           0       -2.411889   -4.497193    1.362892
     24          6           0       -4.406015   -2.022993    0.732984
     25          6           0       -5.006041   -2.445804   -0.620591
     26          6           0       -6.495871   -2.429596   -0.607788
     27          8           0       -7.095849   -2.164545   -1.672164
     28          8           0       -7.125207   -2.673094    0.435158
     29          7           0        2.083992   -1.640650    0.186837
     30          6           0        1.723997   -2.923093    0.493696
     31          6           0        2.876953   -3.801275    0.341717
     32          6           0        3.931993   -3.028008   -0.041617
     33          6           0        3.435965   -1.672165   -0.109678
     34          6           0        2.880107   -5.323393    0.566207
     35          6           0        5.397096   -3.431975   -0.328196
     36          6           0        5.484299   -4.464017   -1.450459
     37          7           0        2.449115    1.148970   -0.277264
     38          6           0        3.777579    0.743020   -0.417335
     39          6           0        4.626398    1.909068   -0.535429
     40          6           0        3.817802    3.009708   -0.488775
     41          6           0        2.467372    2.543957   -0.339944
     42          6           0        6.161978    1.801312   -0.627801
     43          6           0        4.180108    4.495045   -0.472775
     44          6           0        4.988882    5.102893   -1.633812
     45          7           0       -0.345187    1.525766   -0.073598
     46          6           0        0.023452    2.862786   -0.277852
     47          6           0       -1.145517    3.658723   -0.542951
     48          6           0       -2.209579    2.803940   -0.612085
     49          6           0       -1.734826    1.503807   -0.193576
     50          6           0       -1.158150    5.182662   -0.758284
     51          6           0       -3.633873    3.166254   -1.105323
     52          6           0       -4.448366    3.967403   -0.058726
     53          6           0       -5.246706    3.101184    0.892900
     54          8           0       -5.621650    3.551733    2.014427
     55          8           0       -5.556423    1.933197    0.538905
     56          1           0       -6.079195    4.394189    2.064628
     57          1           0       -8.082340   -2.599820    0.446420
     58          1           0       -4.658681   -1.774943   -1.378342
     59          1           0       -4.672236   -3.435320   -0.853687
     60          1           0       -4.754255   -1.040391    0.974071
     61          1           0       -4.740378   -2.703958    1.487562
     62          1           0       -3.771205    4.566671    0.513314
     63          1           0       -5.123816    4.615660   -0.576828
     64          1           0       -3.550866    3.750683   -1.997765
     65          1           0       -4.159798    2.262548   -1.332517
     66          1           0       -3.579085    0.533861    0.058433
     67          1           0       -1.692746    5.411540   -1.656461
     68          1           0       -1.637678    5.656333    0.072732
     69          1           0       -0.152806    5.539555   -0.840824
     70          1           0        1.444302    4.401280   -0.346084
     71          1           0        6.525556    2.499452   -1.352584
     72          1           0        6.592993    2.021015    0.326587
     73          1           0        6.432843    0.808702   -0.921498
     74          1           0        3.871717    5.112174    0.345116
     75          1           0        4.329170    5.631673   -2.289611
     76          1           0        5.720787    5.778674   -1.243255
     77          1           0        5.478629    4.320667   -2.175265
     78          1           0        5.263910   -0.738858   -0.652433
     79          1           0        5.943688   -4.019758   -2.308652
     80          1           0        6.070151   -5.297623   -1.123691
     81          1           0        4.500155   -4.797772   -1.705350
     82          1           0        6.243536   -3.037776    0.194343
     83          1           0        3.354955   -5.805204   -0.262815
     84          1           0        3.414930   -5.550289    1.464752
     85          1           0        1.872629   -5.673234    0.652805
     86          1           0        0.326988   -4.333116    1.221998
     87          1           0       -2.163291   -5.153414    0.555135
     88          1           0       -1.866275   -4.785079    2.237150
     89          1           0       -3.461548   -4.557755    1.561507
     90          1           0       -0.663262   -1.985191   -5.607768
     91          1           0       -1.087638   -3.109800   -4.339610
     92          1           0       -2.147033   -1.770642   -4.710294
     93          1           0       -0.288815    0.604834   -4.709441
     94          1           0        0.839748    1.608222   -2.688361
     95          1           0       -0.026996   -2.445197   -1.917717
     96          1           0        3.405700    1.139255    5.489620
     97          1           0        2.023431    0.390973    6.252821
     98          1           0        3.229349   -0.598967    5.466152
     99          1           0        3.113797   -0.433074    2.580798
    100          1           0        0.169557    1.346811    4.827425
    101          1           0       -0.731437    1.235811    2.454938
 ---------------------------------------------------------------------
 Rotational constants (GHZ):           0.0640035           0.0431224           0.0346215
 Standard basis: def2TZVP (5D, 7F)
 There are  2272 symmetry adapted cartesian basis functions of A   symmetry.
 There are  1995 symmetry adapted basis functions of A   symmetry.
  1995 basis functions,  3224 primitive gaussians,  2272 cartesian basis functions
   206 alpha electrons      206 beta electrons
       nuclear repulsion energy      8998.7561913902 Hartrees.
 NAtoms=  101 NActive=  101 NUniq=  101 SFac= 1.00D+00 NAtFMM=   60 NAOKFM=T Big=T
 Integral buffers will be    131072 words long.
 Raffenetti 2 integral format.
 Two-electron integral symmetry is turned on.
 Nuclear repulsion after empirical dispersion term =     8998.6110805693 Hartrees.
 One-electron integrals computed using PRISM.
   1 Symmetry operations used in ECPInt.
 ECPInt:  NShTT=  314821 NPrTT=  970913 LenC2=  229571 LenP2D=  456403.
 LDataN:  DoStor=T MaxTD1= 6 Len=  172
 NBasis=  1995 RedAO= T EigKep=  3.29D-06  NBF=  1995
 NBsUse=  1995 1.00D-06 EigRej= -1.00D+00 NBFU=  1995
 ExpMin= 4.20D-02 ExpMax= 3.01D+05 ExpMxC= 2.91D+03 IAcc=3 IRadAn=         5 AccDes= 0.00D+00
 Harris functional with IExCor= 1009 and IRadAn=       5 diagonalized for initial guess.
 HarFok:  IExCor= 1009 AccDes= 0.00D+00 IRadAn=         5 IDoV= 1 UseB2=F ITyADJ=14
 ICtDFT=  3500011 ScaDFX=  1.000000  1.000000  1.000000  1.000000
 FoFCou: FMM=F IPFlag=           0 FMFlag=      100000 FMFlg1=        2001
         NFxFlg=           0 DoJE=T BraDBF=F KetDBF=T FulRan=T
         wScrn=  0.000000 ICntrl=       500 IOpCl=  0 I1Cent=   200000004 NGrid=           0
         NMat0=    1 NMatS0=      1 NMatT0=    0 NMatD0=    1 NMtDS0=    0 NMtDT0=    0
 Petite list used in FoFCou.
 Requested convergence on RMS density matrix=1.00D-08 within 128 cycles.
 Requested convergence on MAX density matrix=1.00D-06.
 Requested convergence on             energy=1.00D-06.
 No special actions if energy rises.
 EnCoef did     8 forward-backward iterations
 EnCoef did     8 forward-backward iterations
 EnCoef did    10 forward-backward iterations
 EnCoef did     5 forward-backward iterations
 EnCoef did     5 forward-backward iterations
 EnCoef did     4 forward-backward iterations
 EnCoef did     4 forward-backward iterations
 EnCoef did     2 forward-backward iterations
 EnCoef did   100 forward-backward iterations
 EnCoef did    11 forward-backward iterations
 Rare condition: small coef for last iteration: -0.244D-14
 EnCoef did    94 forward-backward iterations
 Restarting incremental Fock formation.
 SCF Done:  E(RPBE1PBE) =  -3628.79317261     A.U. after   31 cycles
            NFock= 31  Conv=0.35D-08     -V/T= 2.0036
 DoSCS=F DFT=T ScalE2(SS,OS)=  1.000000  1.000000
 Range of M.O.s used for correlation:     1  1995
 NBasis=  1995 NAE=   206 NBE=   206 NFC=     0 NFV=     0
 NROrb=   1995 NOA=   206 NOB=   206 NVA=  1789 NVB=  1789

 **** Warning!!: The largest alpha MO coefficient is  0.42650508D+02


 **** Warning!!: The smallest alpha delta epsilon is  0.23746636D-01

          Differentiating once with respect to electric field.
                with respect to dipole field.
          Electric field/nuclear overlap derivatives assumed to be zero.
          There are     3 degrees of freedom in the 1st order CPHF.  IDoFFX=0 NUNeed=     3.
      3 vectors produced by pass  0 Test12= 1.23D-11 3.33D-08 XBig12= 5.22D+04 1.94D+02.
 AX will form     3 AO Fock derivatives at one time.
      3 vectors produced by pass  1 Test12= 1.23D-11 3.33D-08 XBig12= 6.46D+04 5.74D+01.
      3 vectors produced by pass  2 Test12= 1.23D-11 3.33D-08 XBig12= 9.93D+04 9.69D+01.
      3 vectors produced by pass  3 Test12= 1.23D-11 3.33D-08 XBig12= 6.74D+04 7.53D+01.
      3 vectors produced by pass  4 Test12= 1.23D-11 3.33D-08 XBig12= 5.78D+04 6.96D+01.
      3 vectors produced by pass  5 Test12= 1.23D-11 3.33D-08 XBig12= 2.89D+04 5.89D+01.
      3 vectors produced by pass  6 Test12= 1.23D-11 3.33D-08 XBig12= 1.25D+04 3.09D+01.
      3 vectors produced by pass  7 Test12= 1.23D-11 3.33D-08 XBig12= 6.06D+03 1.58D+01.
      3 vectors produced by pass  8 Test12= 1.23D-11 3.33D-08 XBig12= 3.37D+03 9.15D+00.
      3 vectors produced by pass  9 Test12= 1.23D-11 3.33D-08 XBig12= 1.76D+03 6.88D+00.
      3 vectors produced by pass 10 Test12= 1.23D-11 3.33D-08 XBig12= 6.62D+02 4.21D+00.
      3 vectors produced by pass 11 Test12= 1.23D-11 3.33D-08 XBig12= 2.81D+02 2.71D+00.
      3 vectors produced by pass 12 Test12= 1.23D-11 3.33D-08 XBig12= 1.27D+02 2.14D+00.
      3 vectors produced by pass 13 Test12= 1.23D-11 3.33D-08 XBig12= 5.62D+01 1.40D+00.
      3 vectors produced by pass 14 Test12= 1.23D-11 3.33D-08 XBig12= 2.32D+01 9.44D-01.
      3 vectors produced by pass 15 Test12= 1.23D-11 3.33D-08 XBig12= 1.00D+01 4.66D-01.
      3 vectors produced by pass 16 Test12= 1.23D-11 3.33D-08 XBig12= 3.97D+00 3.92D-01.
      3 vectors produced by pass 17 Test12= 1.23D-11 3.33D-08 XBig12= 1.97D+00 2.80D-01.
      3 vectors produced by pass 18 Test12= 1.23D-11 3.33D-08 XBig12= 8.35D-01 1.52D-01.
      3 vectors produced by pass 19 Test12= 1.23D-11 3.33D-08 XBig12= 2.89D-01 6.78D-02.
      3 vectors produced by pass 20 Test12= 1.23D-11 3.33D-08 XBig12= 1.09D-01 4.09D-02.
      3 vectors produced by pass 21 Test12= 1.23D-11 3.33D-08 XBig12= 2.54D-02 2.44D-02.
      3 vectors produced by pass 22 Test12= 1.23D-11 3.33D-08 XBig12= 6.50D-03 1.43D-02.
      3 vectors produced by pass 23 Test12= 1.23D-11 3.33D-08 XBig12= 1.51D-03 8.07D-03.
      3 vectors produced by pass 24 Test12= 1.23D-11 3.33D-08 XBig12= 4.30D-04 3.83D-03.
      3 vectors produced by pass 25 Test12= 1.23D-11 3.33D-08 XBig12= 1.06D-04 1.65D-03.
      3 vectors produced by pass 26 Test12= 1.23D-11 3.33D-08 XBig12= 2.40D-05 6.26D-04.
      3 vectors produced by pass 27 Test12= 1.23D-11 3.33D-08 XBig12= 5.50D-06 3.17D-04.
      3 vectors produced by pass 28 Test12= 1.23D-11 3.33D-08 XBig12= 9.82D-07 1.58D-04.
      3 vectors produced by pass 29 Test12= 1.23D-11 3.33D-08 XBig12= 1.94D-07 5.12D-05.
      3 vectors produced by pass 30 Test12= 1.23D-11 3.33D-08 XBig12= 4.30D-08 3.07D-05.
      3 vectors produced by pass 31 Test12= 1.23D-11 3.33D-08 XBig12= 7.79D-09 1.18D-05.
      3 vectors produced by pass 32 Test12= 1.23D-11 3.33D-08 XBig12= 2.18D-09 7.13D-06.
      3 vectors produced by pass 33 Test12= 1.23D-11 3.33D-08 XBig12= 3.92D-10 3.85D-06.
      2 vectors produced by pass 34 Test12= 1.23D-11 3.33D-08 XBig12= 5.19D-11 1.47D-06.
      2 vectors produced by pass 35 Test12= 1.23D-11 3.33D-08 XBig12= 1.03D-11 5.70D-07.
      2 vectors produced by pass 36 Test12= 1.23D-11 3.33D-08 XBig12= 2.35D-12 2.35D-07.
      2 vectors produced by pass 37 Test12= 1.23D-11 3.33D-08 XBig12= 3.51D-13 9.45D-08.
      1 vectors produced by pass 38 Test12= 1.23D-11 3.33D-08 XBig12= 8.97D-14 4.16D-08.
 InvSVY:  IOpt=1 It=  1 EMax= 1.14D-13
 Solved reduced A of dimension   111 with     3 vectors.
 Isotropic polarizability for W=    0.000000      802.72 Bohr**3.
 End of Minotr F.D. properties file   721 does not exist.
 End of Minotr F.D. properties file   722 does not exist.
 End of Minotr F.D. properties file   788 does not exist.
 Hyperfine terms turned off by default for NAtoms > 100.

 **********************************************************************

            Population analysis using the SCF density.

 **********************************************************************

 Orbital symmetries:
       Occupied  (A) (A) (A) (A) (A) (A) (A) (A) (A) (A) (A) (A)
                 (A) (A) (A) (A) (A) (A) (A) (A) (A) (A) (A) (A)
                 (A) (A) (A) (A) (A) (A) (A) (A) (A) (A) (A) (A)
                 (A) (A) (A) (A) (A) (A) (A) (A) (A) (A) (A) (A)
                 (A) (A) (A) (A) (A) (A) (A) (A) (A) (A) (A) (A)
                 (A) (A) (A) (A) (A) (A) (A) (A) (A) (A) (A) (A)
                 (A) (A) (A) (A) (A) (A) (A) (A) (A) (A) (A) (A)
                 (A) (A) (A) (A) (A) (A) (A) (A) (A) (A) (A) (A)
                 (A) (A) (A) (A) (A) (A) (A) (A) (A) (A) (A) (A)
                 (A) (A) (A) (A) (A) (A) (A) (A) (A) (A) (A) (A)
                 (A) (A) (A) (A) (A) (A) (A) (A) (A) (A) (A) (A)
                 (A) (A) (A) (A) (A) (A) (A) (A) (A) (A) (A) (A)
                 (A) (A) (A) (A) (A) (A) (A) (A) (A) (A) (A) (A)
                 (A) (A) (A) (A) (A) (A) (A) (A) (A) (A) (A) (A)
                 (A) (A) (A) (A) (A) (A) (A) (A) (A) (A) (A) (A)
                 (A) (A) (A) (A) (A) (A) (A) (A) (A) (A) (A) (A)
                 (A) (A) (A) (A) (A) (A) (A) (A) (A) (A) (A) (A)
                 (A) (A)
       Virtual   (A) (A) (A) (A) (A) (A) (A) (A) (A) (A) (A) (A)
                 (A) (A) (A) (A) (A) (A) (A) (A) (A) (A) (A) (A)
                 (A) (A) (A) (A) (A) (A) (A) (A) (A) (A) (A) (A)
                 (A) (A) (A) (A) (A) (A) (A) (A) (A) (A) (A) (A)
                 (A) (A) (A) (A) (A) (A) (A) (A) (A) (A) (A) (A)
                 (A) (A) (A) (A) (A) (A) (A) (A) (A) (A) (A) (A)
                 (A) (A) (A) (A) (A) (A) (A) (A) (A) (A) (A) (A)
                 (A) (A) (A) (A) (A) (A) (A) (A) (A) (A) (A) (A)
                 (A) (A) (A) (A) (A) (A) (A) (A) (A) (A) (A) (A)
                 (A) (A) (A) (A) (A) (A) (A) (A) (A) (A) (A) (A)
                 (A) (A) (A) (A) (A) (A) (A) (A) (A) (A) (A) (A)
                 (A) (A) (A) (A) (A) (A) (A) (A) (A) (A) (A) (A)
                 (A) (A) (A) (A) (A) (A) (A) (A) (A) (A) (A) (A)
                 (A) (A) (A) (A) (A) (A) (A) (A) (A) (A) (A) (A)
                 (A) (A) (A) (A) (A) (A) (A) (A) (A) (A) (A) (A)
                 (A) (A) (A) (A) (A) (A) (A) (A) (A) (A) (A) (A)
                 (A) (A) (A) (A) (A) (A) (A) (A) (A) (A) (A) (A)
                 (A) (A) (A) (A) (A) (A) (A) (A) (A) (A) (A) (A)
                 (A) (A) (A) (A) (A) (A) (A) (A) (A) (A) (A) (A)
                 (A) (A) (A) (A) (A) (A) (A) (A) (A) (A) (A) (A)
                 (A) (A) (A) (A) (A) (A) (A) (A) (A) (A) (A) (A)
                 (A) (A) (A) (A) (A) (A) (A) (A) (A) (A) (A) (A)
                 (A) (A) (A) (A) (A) (A) (A) (A) (A) (A) (A) (A)
                 (A) (A) (A) (A) (A) (A) (A) (A) (A) (A) (A) (A)
                 (A) (A) (A) (A) (A) (A) (A) (A) (A) (A) (A) (A)
                 (A) (A) (A) (A) (A) (A) (A) (A) (A) (A) (A) (A)
                 (A) (A) (A) (A) (A) (A) (A) (A) (A) (A) (A) (A)
                 (A) (A) (A) (A) (A) (A) (A) (A) (A) (A) (A) (A)
                 (A) (A) (A) (A) (A) (A) (A) (A) (A) (A) (A) (A)
                 (A) (A) (A) (A) (A) (A) (A) (A) (A) (A) (A) (A)
                 (A) (A) (A) (A) (A) (A) (A) (A) (A) (A) (A) (A)
                 (A) (A) (A) (A) (A) (A) (A) (A) (A) (A) (A) (A)
                 (A) (A) (A) (A) (A) (A) (A) (A) (A) (A) (A) (A)
                 (A) (A) (A) (A) (A) (A) (A) (A) (A) (A) (A) (A)
                 (A) (A) (A) (A) (A) (A) (A) (A) (A) (A) (A) (A)
                 (A) (A) (A) (A) (A) (A) (A) (A) (A) (A) (A) (A)
                 (A) (A) (A) (A) (A) (A) (A) (A) (A) (A) (A) (A)
                 (A) (A) (A) (A) (A) (A) (A) (A) (A) (A) (A) (A)
                 (A) (A) (A) (A) (A) (A) (A) (A) (A) (A) (A) (A)
                 (A) (A) (A) (A) (A) (A) (A) (A) (A) (A) (A) (A)
                 (A) (A) (A) (A) (A) (A) (A) (A) (A) (A) (A) (A)
                 (A) (A) (A) (A) (A) (A) (A) (A) (A) (A) (A) (A)
                 (A) (A) (A) (A) (A) (A) (A) (A) (A) (A) (A) (A)
                 (A) (A) (A) (A) (A) (A) (A) (A) (A) (A) (A) (A)
                 (A) (A) (A) (A) (A) (A) (A) (A) (A) (A) (A) (A)
                 (A) (A) (A) (A) (A) (A) (A) (A) (A) (A) (A) (A)
                 (A) (A) (A) (A) (A) (A) (A) (A) (A) (A) (A) (A)
                 (A) (A) (A) (A) (A) (A) (A) (A) (A) (A) (A) (A)
                 (A) (A) (A) (A) (A) (A) (A) (A) (A) (A) (A) (A)
                 (A) (A) (A) (A) (A) (A) (A) (A) (A) (A) (A) (A)
                 (A) (A) (A) (A) (A) (A) (A) (A) (A) (A) (A) (A)
                 (A) (A) (A) (A) (A) (A) (A) (A) (A) (A) (A) (A)
                 (A) (A) (A) (A) (A) (A) (A) (A) (A) (A) (A) (A)
                 (A) (A) (A) (A) (A) (A) (A) (A) (A) (A) (A) (A)
                 (A) (A) (A) (A) (A) (A) (A) (A) (A) (A) (A) (A)
                 (A) (A) (A) (A) (A) (A) (A) (A) (A) (A) (A) (A)
                 (A) (A) (A) (A) (A) (A) (A) (A) (A) (A) (A) (A)
                 (A) (A) (A) (A) (A) (A) (A) (A) (A) (A) (A) (A)
                 (A) (A) (A) (A) (A) (A) (A) (A) (A) (A) (A) (A)
                 (A) (A) (A) (A) (A) (A) (A) (A) (A) (A) (A) (A)
                 (A) (A) (A) (A) (A) (A) (A) (A) (A) (A) (A) (A)
                 (A) (A) (A) (A) (A) (A) (A) (A) (A) (A) (A) (A)
                 (A) (A) (A) (A) (A) (A) (A) (A) (A) (A) (A) (A)
                 (A) (A) (A) (A) (A) (A) (A) (A) (A) (A) (A) (A)
                 (A) (A) (A) (A) (A) (A) (A) (A) (A) (A) (A) (A)
                 (A) (A) (A) (A) (A) (A) (A) (A) (A) (A) (A) (A)
                 (A) (A) (A) (A) (A) (A) (A) (A) (A) (A) (A) (A)
                 (A) (A) (A) (A) (A) (A) (A) (A) (A) (A) (A) (A)
                 (A) (A) (A) (A) (A) (A) (A) (A) (A) (A) (A) (A)
                 (A) (A) (A) (A) (A) (A) (A) (A) (A) (A) (A) (A)
                 (A) (A) (A) (A) (A) (A) (A) (A) (A) (A) (A) (A)
                 (A) (A) (A) (A) (A) (A) (A) (A) (A) (A) (A) (A)
                 (A) (A) (A) (A) (A) (A) (A) (A) (A) (A) (A) (A)
                 (A) (A) (A) (A) (A) (A) (A) (A) (A) (A) (A) (A)
                 (A) (A) (A) (A) (A) (A) (A) (A) (A) (A) (A) (A)
                 (A) (A) (A) (A) (A) (A) (A) (A) (A) (A) (A) (A)
                 (A) (A) (A) (A) (A) (A) (A) (A) (A) (A) (A) (A)
                 (A) (A) (A) (A) (A) (A) (A) (A) (A) (A) (A) (A)
                 (A) (A) (A) (A) (A) (A) (A) (A) (A) (A) (A) (A)
                 (A) (A) (A) (A) (A) (A) (A) (A) (A) (A) (A) (A)
                 (A) (A) (A) (A) (A) (A) (A) (A) (A) (A) (A) (A)
                 (A) (A) (A) (A) (A) (A) (A) (A) (A) (A) (A) (A)
                 (A) (A) (A) (A) (A) (A) (A) (A) (A) (A) (A) (A)
                 (A) (A) (A) (A) (A) (A) (A) (A) (A) (A) (A) (A)
                 (A) (A) (A) (A) (A) (A) (A) (A) (A) (A) (A) (A)
                 (A) (A) (A) (A) (A) (A) (A) (A) (A) (A) (A) (A)
                 (A) (A) (A) (A) (A) (A) (A) (A) (A) (A) (A) (A)
                 (A) (A) (A) (A) (A) (A) (A) (A) (A) (A) (A) (A)
                 (A) (A) (A) (A) (A) (A) (A) (A) (A) (A) (A) (A)
                 (A) (A) (A) (A) (A) (A) (A) (A) (A) (A) (A) (A)
                 (A) (A) (A) (A) (A) (A) (A) (A) (A) (A) (A) (A)
                 (A) (A) (A) (A) (A) (A) (A) (A) (A) (A) (A) (A)
                 (A) (A) (A) (A) (A) (A) (A) (A) (A) (A) (A) (A)
                 (A) (A) (A) (A) (A) (A) (A) (A) (A) (A) (A) (A)
                 (A) (A) (A) (A) (A) (A) (A) (A) (A) (A) (A) (A)
                 (A) (A) (A) (A) (A) (A) (A) (A) (A) (A) (A) (A)
                 (A) (A) (A) (A) (A) (A) (A) (A) (A) (A) (A) (A)
                 (A) (A) (A) (A) (A) (A) (A) (A) (A) (A) (A) (A)
                 (A) (A) (A) (A) (A) (A) (A) (A) (A) (A) (A) (A)
                 (A) (A) (A) (A) (A) (A) (A) (A) (A) (A) (A) (A)
                 (A) (A) (A) (A) (A) (A) (A) (A) (A) (A) (A) (A)
                 (A) (A) (A) (A) (A) (A) (A) (A) (A) (A) (A) (A)
                 (A) (A) (A) (A) (A) (A) (A) (A) (A) (A) (A) (A)
                 (A) (A) (A) (A) (A) (A) (A) (A) (A) (A) (A) (A)
                 (A) (A) (A) (A) (A) (A) (A) (A) (A) (A) (A) (A)
                 (A) (A) (A) (A) (A) (A) (A) (A) (A) (A) (A) (A)
                 (A) (A) (A) (A) (A) (A) (A) (A) (A) (A) (A) (A)
                 (A) (A) (A) (A) (A) (A) (A) (A) (A) (A) (A) (A)
                 (A) (A) (A) (A) (A) (A) (A) (A) (A) (A) (A) (A)
                 (A) (A) (A) (A) (A) (A) (A) (A) (A) (A) (A) (A)
                 (A) (A) (A) (A) (A) (A) (A) (A) (A) (A) (A) (A)
                 (A) (A) (A) (A) (A) (A) (A) (A) (A) (A) (A) (A)
                 (A) (A) (A) (A) (A) (A) (A) (A) (A) (A) (A) (A)
                 (A) (A) (A) (A) (A) (A) (A) (A) (A) (A) (A) (A)
                 (A) (A) (A) (A) (A) (A) (A) (A) (A) (A) (A) (A)
                 (A) (A) (A) (A) (A) (A) (A) (A) (A) (A) (A) (A)
                 (A) (A) (A) (A) (A) (A) (A) (A) (A) (A) (A) (A)
                 (A) (A) (A) (A) (A) (A) (A) (A) (A) (A) (A) (A)
                 (A) (A) (A) (A) (A) (A) (A) (A) (A) (A) (A) (A)
                 (A) (A) (A) (A) (A) (A) (A) (A) (A) (A) (A) (A)
                 (A) (A) (A) (A) (A) (A) (A) (A) (A) (A) (A) (A)
                 (A) (A) (A) (A) (A) (A) (A) (A) (A) (A) (A) (A)
                 (A) (A) (A) (A) (A) (A) (A) (A) (A) (A) (A) (A)
                 (A) (A) (A) (A) (A) (A) (A) (A) (A) (A) (A) (A)
                 (A) (A) (A) (A) (A) (A) (A) (A) (A) (A) (A) (A)
                 (A) (A) (A) (A) (A) (A) (A) (A) (A) (A) (A) (A)
                 (A) (A) (A) (A) (A) (A) (A) (A) (A) (A) (A) (A)
                 (A) (A) (A) (A) (A) (A) (A) (A) (A) (A) (A) (A)
                 (A) (A) (A) (A) (A) (A) (A) (A) (A) (A) (A) (A)
                 (A) (A) (A) (A) (A) (A) (A) (A) (A) (A) (A) (A)
                 (A) (A) (A) (A) (A) (A) (A) (A) (A) (A) (A) (A)
                 (A) (A) (A) (A) (A) (A) (A) (A) (A) (A) (A) (A)
                 (A) (A) (A) (A) (A) (A) (A) (A) (A) (A) (A) (A)
                 (A) (A) (A) (A) (A) (A) (A) (A) (A) (A) (A) (A)
                 (A) (A) (A) (A) (A) (A) (A) (A) (A) (A) (A) (A)
                 (A) (A) (A) (A) (A) (A) (A) (A) (A) (A) (A) (A)
                 (A) (A) (A) (A) (A) (A) (A) (A) (A) (A) (A) (A)
                 (A) (A) (A) (A) (A) (A) (A) (A) (A) (A) (A) (A)
                 (A) (A) (A) (A) (A) (A) (A) (A) (A) (A) (A) (A)
                 (A) (A) (A) (A) (A) (A) (A) (A) (A) (A) (A) (A)
                 (A) (A) (A) (A) (A) (A) (A) (A) (A) (A) (A) (A)
                 (A) (A) (A) (A) (A) (A) (A) (A) (A) (A) (A) (A)
                 (A) (A) (A) (A) (A) (A) (A) (A) (A) (A) (A) (A)
                 (A) (A) (A) (A) (A) (A) (A) (A) (A) (A) (A) (A)
                 (A) (A) (A) (A) (A) (A) (A) (A) (A) (A) (A) (A)
                 (A) (A) (A) (A) (A) (A) (A) (A) (A) (A) (A) (A)
                 (A) (A) (A) (A) (A) (A) (A) (A) (A) (A) (A) (A)
                 (A) (A) (A) (A) (A) (A) (A) (A) (A) (A) (A) (A)
                 (A) (A) (A) (A) (A) (A) (A) (A) (A) (A) (A) (A)
                 (A)
 The electronic state is 1-A.
 Alpha  occ. eigenvalues -- -256.29603 -30.06629 -25.89440 -25.89174 -25.88924
 Alpha  occ. eigenvalues --  -19.26785 -19.25912 -19.18659 -19.15669 -14.43747
 Alpha  occ. eigenvalues --  -14.43434 -14.37915 -14.37762 -14.35986 -14.35585
 Alpha  occ. eigenvalues --  -14.35568 -14.34872 -10.36145 -10.33660 -10.27049
 Alpha  occ. eigenvalues --  -10.26741 -10.25009 -10.24874 -10.23828 -10.23427
 Alpha  occ. eigenvalues --  -10.23310 -10.23176 -10.23163 -10.23121 -10.22880
 Alpha  occ. eigenvalues --  -10.22784 -10.22715 -10.22665 -10.22650 -10.22598
 Alpha  occ. eigenvalues --  -10.22470 -10.22207 -10.22133 -10.22038 -10.21963
 Alpha  occ. eigenvalues --  -10.21543 -10.21388 -10.21336 -10.21265 -10.21123
 Alpha  occ. eigenvalues --  -10.21041 -10.20956 -10.20754 -10.20747 -10.20452
 Alpha  occ. eigenvalues --  -10.20422 -10.20366 -10.20192 -10.20177 -10.19957
 Alpha  occ. eigenvalues --  -10.19782 -10.19649 -10.19609 -10.19582  -3.41006
 Alpha  occ. eigenvalues --   -2.16919  -2.16462  -2.16094  -1.16842  -1.16729
 Alpha  occ. eigenvalues --   -1.05256  -1.05172  -1.02965  -1.00702  -0.95664
 Alpha  occ. eigenvalues --   -0.94702  -0.94566  -0.93597  -0.89824  -0.89588
 Alpha  occ. eigenvalues --   -0.82739  -0.82563  -0.81628  -0.80681  -0.80576
 Alpha  occ. eigenvalues --   -0.79765  -0.79491  -0.79230  -0.79007  -0.78140
 Alpha  occ. eigenvalues --   -0.77639  -0.75334  -0.74652  -0.73672  -0.72992
 Alpha  occ. eigenvalues --   -0.72392  -0.72051  -0.71740  -0.70788  -0.69789
 Alpha  occ. eigenvalues --   -0.69639  -0.68847  -0.67798  -0.66117  -0.65014
 Alpha  occ. eigenvalues --   -0.63875  -0.63836  -0.63639  -0.63417  -0.61091
 Alpha  occ. eigenvalues --   -0.60994  -0.60884  -0.60552  -0.57491  -0.55947
 Alpha  occ. eigenvalues --   -0.55874  -0.55647  -0.54928  -0.53672  -0.53394
 Alpha  occ. eigenvalues --   -0.52699  -0.51982  -0.51190  -0.50911  -0.50386
 Alpha  occ. eigenvalues --   -0.50086  -0.49599  -0.49437  -0.48153  -0.48103
 Alpha  occ. eigenvalues --   -0.47459  -0.47316  -0.47215  -0.47080  -0.46943
 Alpha  occ. eigenvalues --   -0.46800  -0.46615  -0.45237  -0.44935  -0.44182
 Alpha  occ. eigenvalues --   -0.43897  -0.43729  -0.43534  -0.43079  -0.43059
 Alpha  occ. eigenvalues --   -0.42800  -0.42723  -0.42615  -0.42485  -0.42392
 Alpha  occ. eigenvalues --   -0.42309  -0.42290  -0.42149  -0.41826  -0.41683
 Alpha  occ. eigenvalues --   -0.41644  -0.41497  -0.41362  -0.41135  -0.40552
 Alpha  occ. eigenvalues --   -0.40441  -0.40174  -0.39979  -0.39572  -0.39408
 Alpha  occ. eigenvalues --   -0.39215  -0.38719  -0.38447  -0.38110  -0.38054
 Alpha  occ. eigenvalues --   -0.37782  -0.37468  -0.37141  -0.36969  -0.36693
 Alpha  occ. eigenvalues --   -0.36354  -0.36145  -0.35892  -0.35587  -0.35545
 Alpha  occ. eigenvalues --   -0.34860  -0.34526  -0.34098  -0.33493  -0.33308
 Alpha  occ. eigenvalues --   -0.32813  -0.32454  -0.32055  -0.31117  -0.30885
 Alpha  occ. eigenvalues --   -0.30739  -0.30581  -0.30379  -0.28542  -0.28406
 Alpha  occ. eigenvalues --   -0.28287  -0.26776  -0.26509  -0.26047  -0.24463
 Alpha  occ. eigenvalues --   -0.24153  -0.23269  -0.23188  -0.22909  -0.22049
 Alpha  occ. eigenvalues --   -0.18763  -0.17915  -0.17383  -0.17235  -0.16799
 Alpha  occ. eigenvalues --   -0.12371
 Alpha virt. eigenvalues --   -0.09996  -0.05203  -0.05038  -0.01562   0.00513
 Alpha virt. eigenvalues --    0.01915   0.02543   0.02752   0.02789   0.03280
 Alpha virt. eigenvalues --    0.03622   0.03996   0.04537   0.05251   0.05467
 Alpha virt. eigenvalues --    0.05700   0.06105   0.06353   0.06493   0.06756
 Alpha virt. eigenvalues --    0.07119   0.07289   0.07579   0.07625   0.07932
 Alpha virt. eigenvalues --    0.08000   0.08441   0.08515   0.09089   0.09230
 Alpha virt. eigenvalues --    0.09659   0.09721   0.10075   0.10281   0.10470
 Alpha virt. eigenvalues --    0.10596   0.11045   0.11156   0.11322   0.11811
 Alpha virt. eigenvalues --    0.11975   0.12242   0.12436   0.12665   0.12827
 Alpha virt. eigenvalues --    0.13008   0.13084   0.13315   0.13536   0.13670
 Alpha virt. eigenvalues --    0.14085   0.14113   0.14331   0.14634   0.14766
 Alpha virt. eigenvalues --    0.14863   0.14986   0.15053   0.15145   0.15319
 Alpha virt. eigenvalues --    0.15434   0.15819   0.16049   0.16235   0.16377
 Alpha virt. eigenvalues --    0.16734   0.16894   0.17123   0.17207   0.17478
 Alpha virt. eigenvalues --    0.17758   0.17934   0.18305   0.18383   0.18443
 Alpha virt. eigenvalues --    0.18517   0.19002   0.19096   0.19282   0.19658
 Alpha virt. eigenvalues --    0.20259   0.20276   0.20392   0.20594   0.20904
 Alpha virt. eigenvalues --    0.21070   0.21327   0.21602   0.21745   0.21909
 Alpha virt. eigenvalues --    0.21956   0.22466   0.22683   0.22917   0.23087
 Alpha virt. eigenvalues --    0.23282   0.23399   0.23550   0.23639   0.23773
 Alpha virt. eigenvalues --    0.24121   0.24389   0.24519   0.24658   0.24850
 Alpha virt. eigenvalues --    0.25180   0.25448   0.25688   0.25815   0.26138
 Alpha virt. eigenvalues --    0.26378   0.26481   0.26615   0.26887   0.26993
 Alpha virt. eigenvalues --    0.27225   0.27584   0.27763   0.27854   0.28074
 Alpha virt. eigenvalues --    0.28283   0.28506   0.28716   0.29223   0.29323
 Alpha virt. eigenvalues --    0.29489   0.29772   0.29841   0.30041   0.30156
 Alpha virt. eigenvalues --    0.30616   0.30722   0.30946   0.31187   0.31236
 Alpha virt. eigenvalues --    0.31441   0.31660   0.32092   0.32268   0.32478
 Alpha virt. eigenvalues --    0.32659   0.32852   0.33131   0.33376   0.33566
 Alpha virt. eigenvalues --    0.33917   0.34363   0.34531   0.34671   0.34998
 Alpha virt. eigenvalues --    0.35057   0.35141   0.35383   0.35754   0.36040
 Alpha virt. eigenvalues --    0.36209   0.36326   0.36641   0.36866   0.37010
 Alpha virt. eigenvalues --    0.37251   0.37513   0.37582   0.37891   0.37968
 Alpha virt. eigenvalues --    0.38295   0.38387   0.38599   0.38754   0.39027
 Alpha virt. eigenvalues --    0.39257   0.39504   0.39634   0.39785   0.40031
 Alpha virt. eigenvalues --    0.40251   0.40326   0.40509   0.40816   0.40891
 Alpha virt. eigenvalues --    0.41204   0.41431   0.41703   0.41717   0.41800
 Alpha virt. eigenvalues --    0.42144   0.42230   0.42387   0.42739   0.42898
 Alpha virt. eigenvalues --    0.43084   0.43198   0.43268   0.43361   0.43614
 Alpha virt. eigenvalues --    0.43759   0.43816   0.44203   0.44378   0.44552
 Alpha virt. eigenvalues --    0.44609   0.44805   0.45025   0.45189   0.45291
 Alpha virt. eigenvalues --    0.45517   0.45626   0.45971   0.46023   0.46279
 Alpha virt. eigenvalues --    0.46393   0.46502   0.46606   0.46851   0.46914
 Alpha virt. eigenvalues --    0.47158   0.47370   0.47523   0.47682   0.47722
 Alpha virt. eigenvalues --    0.47920   0.48091   0.48247   0.48314   0.48535
 Alpha virt. eigenvalues --    0.48732   0.48957   0.49073   0.49210   0.49315
 Alpha virt. eigenvalues --    0.49422   0.49598   0.49700   0.50105   0.50146
 Alpha virt. eigenvalues --    0.50466   0.50487   0.50820   0.50925   0.51180
 Alpha virt. eigenvalues --    0.51260   0.51269   0.51543   0.51710   0.51878
 Alpha virt. eigenvalues --    0.51997   0.52232   0.52470   0.52557   0.52635
 Alpha virt. eigenvalues --    0.52900   0.53034   0.53066   0.53373   0.53531
 Alpha virt. eigenvalues --    0.53704   0.53974   0.54074   0.54355   0.54515
 Alpha virt. eigenvalues --    0.54790   0.54902   0.55303   0.55417   0.55568
 Alpha virt. eigenvalues --    0.55739   0.55985   0.56038   0.56210   0.56475
 Alpha virt. eigenvalues --    0.56608   0.57160   0.57287   0.57391   0.57540
 Alpha virt. eigenvalues --    0.57806   0.57984   0.58052   0.58248   0.58668
 Alpha virt. eigenvalues --    0.58724   0.58972   0.59272   0.59408   0.59451
 Alpha virt. eigenvalues --    0.59676   0.59862   0.60258   0.60358   0.60876
 Alpha virt. eigenvalues --    0.61109   0.61236   0.61568   0.61771   0.61882
 Alpha virt. eigenvalues --    0.62292   0.62583   0.62938   0.63142   0.63257
 Alpha virt. eigenvalues --    0.63363   0.63453   0.63997   0.64431   0.64741
 Alpha virt. eigenvalues --    0.64793   0.65173   0.65248   0.65661   0.65702
 Alpha virt. eigenvalues --    0.65942   0.66181   0.66528   0.66615   0.67040
 Alpha virt. eigenvalues --    0.67164   0.67211   0.67542   0.67677   0.68038
 Alpha virt. eigenvalues --    0.68274   0.68672   0.69114   0.69324   0.69479
 Alpha virt. eigenvalues --    0.69737   0.70033   0.70564   0.70821   0.71030
 Alpha virt. eigenvalues --    0.71233   0.71560   0.71786   0.72207   0.72365
 Alpha virt. eigenvalues --    0.72735   0.72794   0.73445   0.73754   0.73977
 Alpha virt. eigenvalues --    0.74274   0.74593   0.74733   0.75030   0.75337
 Alpha virt. eigenvalues --    0.75710   0.75775   0.76117   0.76489   0.76568
 Alpha virt. eigenvalues --    0.76999   0.77250   0.77564   0.77759   0.78022
 Alpha virt. eigenvalues --    0.78426   0.78641   0.78882   0.79113   0.79297
 Alpha virt. eigenvalues --    0.79867   0.80014   0.80233   0.80572   0.80720
 Alpha virt. eigenvalues --    0.81073   0.81573   0.81949   0.82051   0.82157
 Alpha virt. eigenvalues --    0.82468   0.82853   0.83015   0.83367   0.83529
 Alpha virt. eigenvalues --    0.83944   0.84251   0.84357   0.84790   0.84837
 Alpha virt. eigenvalues --    0.84940   0.85778   0.85839   0.86518   0.86724
 Alpha virt. eigenvalues --    0.86851   0.87154   0.87325   0.87602   0.88023
 Alpha virt. eigenvalues --    0.88234   0.88549   0.88682   0.89113   0.89414
 Alpha virt. eigenvalues --    0.89524   0.90150   0.90275   0.90821   0.90975
 Alpha virt. eigenvalues --    0.91182   0.91812   0.91884   0.92000   0.92295
 Alpha virt. eigenvalues --    0.92626   0.92724   0.93102   0.93390   0.93537
 Alpha virt. eigenvalues --    0.93997   0.94068   0.94497   0.94556   0.94832
 Alpha virt. eigenvalues --    0.95060   0.95345   0.95797   0.96106   0.96269
 Alpha virt. eigenvalues --    0.96425   0.96841   0.96986   0.97279   0.97408
 Alpha virt. eigenvalues --    0.97652   0.97822   0.97860   0.98127   0.98369
 Alpha virt. eigenvalues --    0.98588   0.98887   0.99147   0.99288   0.99817
 Alpha virt. eigenvalues --    1.00116   1.00258   1.00398   1.00714   1.00909
 Alpha virt. eigenvalues --    1.01242   1.01540   1.01919   1.02231   1.02880
 Alpha virt. eigenvalues --    1.03042   1.03266   1.03420   1.03866   1.04067
 Alpha virt. eigenvalues --    1.04112   1.04457   1.04703   1.05160   1.05246
 Alpha virt. eigenvalues --    1.05381   1.05738   1.06020   1.06444   1.06596
 Alpha virt. eigenvalues --    1.07135   1.07161   1.07368   1.07927   1.08138
 Alpha virt. eigenvalues --    1.08394   1.08847   1.09166   1.09671   1.09867
 Alpha virt. eigenvalues --    1.09984   1.10183   1.10232   1.10808   1.11232
 Alpha virt. eigenvalues --    1.11526   1.11810   1.12315   1.12474   1.12940
 Alpha virt. eigenvalues --    1.13125   1.13354   1.13712   1.13858   1.14367
 Alpha virt. eigenvalues --    1.14409   1.14642   1.15052   1.15179   1.15765
 Alpha virt. eigenvalues --    1.15916   1.16384   1.16625   1.16712   1.17115
 Alpha virt. eigenvalues --    1.17435   1.18431   1.18827   1.19044   1.19182
 Alpha virt. eigenvalues --    1.19571   1.19658   1.20163   1.20420   1.20709
 Alpha virt. eigenvalues --    1.20788   1.21496   1.21840   1.22006   1.22270
 Alpha virt. eigenvalues --    1.22504   1.22875   1.23244   1.23353   1.23679
 Alpha virt. eigenvalues --    1.23769   1.24373   1.24630   1.24922   1.25361
 Alpha virt. eigenvalues --    1.25945   1.26033   1.26442   1.26654   1.27027
 Alpha virt. eigenvalues --    1.27209   1.27733   1.28334   1.28410   1.28684
 Alpha virt. eigenvalues --    1.28990   1.29248   1.29653   1.29917   1.30547
 Alpha virt. eigenvalues --    1.30653   1.30910   1.31347   1.31819   1.32223
 Alpha virt. eigenvalues --    1.32389   1.33107   1.33251   1.33735   1.34190
 Alpha virt. eigenvalues --    1.34770   1.34823   1.35163   1.35376   1.35857
 Alpha virt. eigenvalues --    1.36285   1.36393   1.36726   1.37150   1.37605
 Alpha virt. eigenvalues --    1.38190   1.38298   1.38346   1.38850   1.39249
 Alpha virt. eigenvalues --    1.39459   1.39751   1.40505   1.41392   1.41720
 Alpha virt. eigenvalues --    1.41894   1.42475   1.42662   1.43360   1.43418
 Alpha virt. eigenvalues --    1.43693   1.44320   1.44558   1.44882   1.45090
 Alpha virt. eigenvalues --    1.45313   1.45769   1.46182   1.46565   1.46806
 Alpha virt. eigenvalues --    1.47129   1.47725   1.48265   1.48895   1.48983
 Alpha virt. eigenvalues --    1.49014   1.49690   1.49791   1.50104   1.50289
 Alpha virt. eigenvalues --    1.50503   1.50870   1.50929   1.51252   1.51596
 Alpha virt. eigenvalues --    1.51764   1.51854   1.52278   1.52814   1.53176
 Alpha virt. eigenvalues --    1.53310   1.53506   1.53576   1.53863   1.54155
 Alpha virt. eigenvalues --    1.54391   1.54641   1.54716   1.54969   1.55209
 Alpha virt. eigenvalues --    1.55292   1.55981   1.56040   1.56184   1.56439
 Alpha virt. eigenvalues --    1.56526   1.56938   1.56995   1.57040   1.57227
 Alpha virt. eigenvalues --    1.57646   1.57885   1.58072   1.58364   1.58781
 Alpha virt. eigenvalues --    1.58861   1.58985   1.59134   1.59715   1.59898
 Alpha virt. eigenvalues --    1.60243   1.60331   1.60540   1.60842   1.61240
 Alpha virt. eigenvalues --    1.61343   1.61617   1.61945   1.62169   1.62313
 Alpha virt. eigenvalues --    1.62604   1.62625   1.63047   1.63481   1.63579
 Alpha virt. eigenvalues --    1.63683   1.64030   1.64274   1.64492   1.64802
 Alpha virt. eigenvalues --    1.65040   1.65464   1.65698   1.65871   1.66031
 Alpha virt. eigenvalues --    1.66070   1.66363   1.66534   1.67149   1.67294
 Alpha virt. eigenvalues --    1.67506   1.67566   1.67807   1.67981   1.68523
 Alpha virt. eigenvalues --    1.69046   1.69181   1.69544   1.69731   1.69858
 Alpha virt. eigenvalues --    1.70308   1.70466   1.70879   1.71296   1.71426
 Alpha virt. eigenvalues --    1.71696   1.71946   1.71981   1.72421   1.72691
 Alpha virt. eigenvalues --    1.72999   1.73373   1.73611   1.74034   1.74164
 Alpha virt. eigenvalues --    1.74394   1.74498   1.74822   1.75088   1.75655
 Alpha virt. eigenvalues --    1.75759   1.75942   1.76177   1.76694   1.77202
 Alpha virt. eigenvalues --    1.77503   1.77877   1.78333   1.78429   1.78862
 Alpha virt. eigenvalues --    1.79119   1.79419   1.79941   1.80441   1.80588
 Alpha virt. eigenvalues --    1.81075   1.81453   1.81911   1.82087   1.82676
 Alpha virt. eigenvalues --    1.82858   1.83862   1.83920   1.84455   1.84805
 Alpha virt. eigenvalues --    1.85556   1.85830   1.86069   1.86492   1.87037
 Alpha virt. eigenvalues --    1.87203   1.87836   1.88152   1.88643   1.88907
 Alpha virt. eigenvalues --    1.89273   1.89863   1.90137   1.90372   1.90795
 Alpha virt. eigenvalues --    1.90944   1.91230   1.91732   1.92027   1.92451
 Alpha virt. eigenvalues --    1.92903   1.93394   1.93549   1.93849   1.94339
 Alpha virt. eigenvalues --    1.94500   1.94734   1.94924   1.95782   1.96262
 Alpha virt. eigenvalues --    1.96506   1.97130   1.97500   1.97681   1.97818
 Alpha virt. eigenvalues --    1.98125   1.98393   1.98674   1.99060   1.99366
 Alpha virt. eigenvalues --    1.99670   2.00269   2.00634   2.00778   2.00922
 Alpha virt. eigenvalues --    2.01124   2.01545   2.01633   2.01989   2.02183
 Alpha virt. eigenvalues --    2.02617   2.02792   2.03160   2.03571   2.04058
 Alpha virt. eigenvalues --    2.04218   2.04866   2.05153   2.05647   2.05923
 Alpha virt. eigenvalues --    2.06403   2.06593   2.06665   2.07205   2.07291
 Alpha virt. eigenvalues --    2.07709   2.08216   2.08468   2.08792   2.08952
 Alpha virt. eigenvalues --    2.09422   2.09768   2.09827   2.10063   2.10641
 Alpha virt. eigenvalues --    2.11191   2.11643   2.11965   2.12213   2.12716
 Alpha virt. eigenvalues --    2.12910   2.13669   2.13813   2.14160   2.14642
 Alpha virt. eigenvalues --    2.14888   2.14947   2.15570   2.16035   2.16276
 Alpha virt. eigenvalues --    2.16320   2.16526   2.16788   2.17031   2.17264
 Alpha virt. eigenvalues --    2.17590   2.17882   2.18236   2.18474   2.18828
 Alpha virt. eigenvalues --    2.19379   2.19543   2.19720   2.20274   2.20609
 Alpha virt. eigenvalues --    2.20755   2.20958   2.21075   2.21431   2.22086
 Alpha virt. eigenvalues --    2.22224   2.22294   2.22567   2.23208   2.23512
 Alpha virt. eigenvalues --    2.23748   2.24059   2.24607   2.24991   2.25543
 Alpha virt. eigenvalues --    2.25575   2.26406   2.26486   2.26908   2.27466
 Alpha virt. eigenvalues --    2.27760   2.27904   2.28188   2.28891   2.29081
 Alpha virt. eigenvalues --    2.29571   2.29915   2.30068   2.30322   2.30623
 Alpha virt. eigenvalues --    2.30941   2.31236   2.31303   2.31739   2.32421
 Alpha virt. eigenvalues --    2.32879   2.33452   2.33676   2.33810   2.34226
 Alpha virt. eigenvalues --    2.34448   2.34804   2.34925   2.35345   2.35775
 Alpha virt. eigenvalues --    2.35993   2.36085   2.36713   2.36823   2.37074
 Alpha virt. eigenvalues --    2.37504   2.37874   2.37980   2.38351   2.38549
 Alpha virt. eigenvalues --    2.38943   2.39241   2.39310   2.39695   2.39801
 Alpha virt. eigenvalues --    2.40688   2.40981   2.41556   2.41679   2.41830
 Alpha virt. eigenvalues --    2.42350   2.42777   2.43462   2.43742   2.43788
 Alpha virt. eigenvalues --    2.44137   2.44824   2.45351   2.45435   2.45673
 Alpha virt. eigenvalues --    2.46107   2.46580   2.46599   2.47054   2.47490
 Alpha virt. eigenvalues --    2.47682   2.48158   2.48715   2.48891   2.49123
 Alpha virt. eigenvalues --    2.49375   2.50021   2.50854   2.51405   2.51622
 Alpha virt. eigenvalues --    2.52026   2.52203   2.52863   2.53070   2.53562
 Alpha virt. eigenvalues --    2.53794   2.53995   2.54292   2.54473   2.54664
 Alpha virt. eigenvalues --    2.55192   2.55651   2.56234   2.56443   2.56781
 Alpha virt. eigenvalues --    2.57118   2.57768   2.58051   2.58123   2.58435
 Alpha virt. eigenvalues --    2.58818   2.58987   2.59322   2.59488   2.59772
 Alpha virt. eigenvalues --    2.59889   2.60352   2.60362   2.60948   2.61223
 Alpha virt. eigenvalues --    2.61413   2.61922   2.62353   2.62733   2.63042
 Alpha virt. eigenvalues --    2.63151   2.63528   2.63813   2.63952   2.64356
 Alpha virt. eigenvalues --    2.64669   2.64855   2.64982   2.65079   2.65304
 Alpha virt. eigenvalues --    2.65636   2.66151   2.66413   2.66837   2.66993
 Alpha virt. eigenvalues --    2.67410   2.67588   2.67939   2.68019   2.68478
 Alpha virt. eigenvalues --    2.68679   2.69325   2.69787   2.70207   2.70621
 Alpha virt. eigenvalues --    2.70955   2.71149   2.71371   2.71547   2.72192
 Alpha virt. eigenvalues --    2.72580   2.72823   2.73056   2.73306   2.73434
 Alpha virt. eigenvalues --    2.73798   2.74215   2.74364   2.74820   2.75207
 Alpha virt. eigenvalues --    2.75723   2.76000   2.76120   2.76401   2.77263
 Alpha virt. eigenvalues --    2.77454   2.77505   2.77903   2.78376   2.78741
 Alpha virt. eigenvalues --    2.79000   2.79584   2.80049   2.80132   2.80615
 Alpha virt. eigenvalues --    2.80785   2.81334   2.81472   2.81784   2.82108
 Alpha virt. eigenvalues --    2.82199   2.82455   2.83024   2.83118   2.83608
 Alpha virt. eigenvalues --    2.83899   2.84235   2.84763   2.84897   2.85621
 Alpha virt. eigenvalues --    2.85842   2.85887   2.86081   2.86397   2.87247
 Alpha virt. eigenvalues --    2.87315   2.87655   2.87772   2.88409   2.88472
 Alpha virt. eigenvalues --    2.88921   2.89097   2.89779   2.90157   2.90617
 Alpha virt. eigenvalues --    2.90772   2.90915   2.91344   2.91461   2.91617
 Alpha virt. eigenvalues --    2.91817   2.92263   2.92727   2.92908   2.93057
 Alpha virt. eigenvalues --    2.93432   2.93898   2.94233   2.94377   2.94781
 Alpha virt. eigenvalues --    2.94998   2.95555   2.95886   2.96256   2.96425
 Alpha virt. eigenvalues --    2.96804   2.97026   2.97328   2.97581   2.97885
 Alpha virt. eigenvalues --    2.98076   2.98322   2.98665   2.98999   2.99074
 Alpha virt. eigenvalues --    2.99657   2.99878   3.00032   3.00367   3.00925
 Alpha virt. eigenvalues --    3.01210   3.01286   3.01438   3.01706   3.01930
 Alpha virt. eigenvalues --    3.02257   3.02569   3.02886   3.03301   3.03319
 Alpha virt. eigenvalues --    3.03660   3.04122   3.04253   3.04566   3.05137
 Alpha virt. eigenvalues --    3.05514   3.05704   3.06272   3.06363   3.06633
 Alpha virt. eigenvalues --    3.06938   3.07157   3.07594   3.07699   3.07989
 Alpha virt. eigenvalues --    3.08251   3.08518   3.08645   3.08742   3.09103
 Alpha virt. eigenvalues --    3.09674   3.09922   3.10162   3.10686   3.10854
 Alpha virt. eigenvalues --    3.11043   3.11432   3.11443   3.11725   3.11983
 Alpha virt. eigenvalues --    3.12234   3.12509   3.12799   3.13029   3.13404
 Alpha virt. eigenvalues --    3.13622   3.13726   3.13869   3.14036   3.14256
 Alpha virt. eigenvalues --    3.14819   3.15027   3.15218   3.15301   3.15697
 Alpha virt. eigenvalues --    3.15937   3.16125   3.16285   3.16580   3.16846
 Alpha virt. eigenvalues --    3.17065   3.17279   3.17328   3.17951   3.18072
 Alpha virt. eigenvalues --    3.18251   3.18526   3.18650   3.19018   3.19285
 Alpha virt. eigenvalues --    3.19458   3.19734   3.20087   3.20238   3.20620
 Alpha virt. eigenvalues --    3.20914   3.21111   3.21559   3.21696   3.21879
 Alpha virt. eigenvalues --    3.22019   3.22454   3.22785   3.23070   3.23282
 Alpha virt. eigenvalues --    3.23660   3.23850   3.24016   3.24206   3.24315
 Alpha virt. eigenvalues --    3.24628   3.24773   3.24980   3.25023   3.25517
 Alpha virt. eigenvalues --    3.25891   3.25919   3.26180   3.26479   3.26637
 Alpha virt. eigenvalues --    3.27212   3.27287   3.27493   3.27951   3.28181
 Alpha virt. eigenvalues --    3.28282   3.28349   3.28562   3.29120   3.29408
 Alpha virt. eigenvalues --    3.29801   3.29922   3.30171   3.30288   3.30725
 Alpha virt. eigenvalues --    3.30850   3.31011   3.31483   3.31736   3.31778
 Alpha virt. eigenvalues --    3.32229   3.32487   3.32768   3.33144   3.33257
 Alpha virt. eigenvalues --    3.33449   3.33596   3.33868   3.34325   3.34507
 Alpha virt. eigenvalues --    3.34944   3.35122   3.35207   3.35388   3.35572
 Alpha virt. eigenvalues --    3.35709   3.36151   3.36439   3.36580   3.36986
 Alpha virt. eigenvalues --    3.37202   3.37748   3.37852   3.37960   3.38173
 Alpha virt. eigenvalues --    3.38402   3.38649   3.38831   3.38893   3.38935
 Alpha virt. eigenvalues --    3.39542   3.39602   3.40100   3.40418   3.40512
 Alpha virt. eigenvalues --    3.40567   3.40802   3.41203   3.41262   3.41545
 Alpha virt. eigenvalues --    3.41930   3.42044   3.42354   3.42443   3.42589
 Alpha virt. eigenvalues --    3.43043   3.43331   3.43407   3.43897   3.44151
 Alpha virt. eigenvalues --    3.44524   3.44866   3.45145   3.45477   3.45662
 Alpha virt. eigenvalues --    3.45894   3.46020   3.46567   3.46680   3.47133
 Alpha virt. eigenvalues --    3.47139   3.47526   3.47724   3.47816   3.48244
 Alpha virt. eigenvalues --    3.48615   3.49054   3.49208   3.49533   3.49820
 Alpha virt. eigenvalues --    3.50282   3.50430   3.50624   3.51216   3.51331
 Alpha virt. eigenvalues --    3.51508   3.51676   3.51976   3.52449   3.52583
 Alpha virt. eigenvalues --    3.53002   3.53631   3.53658   3.54663   3.54818
 Alpha virt. eigenvalues --    3.55142   3.55263   3.55666   3.56010   3.56287
 Alpha virt. eigenvalues --    3.56454   3.56849   3.57117   3.57222   3.57565
 Alpha virt. eigenvalues --    3.58071   3.58165   3.58558   3.59297   3.59634
 Alpha virt. eigenvalues --    3.59955   3.60089   3.60238   3.60732   3.61140
 Alpha virt. eigenvalues --    3.61301   3.61762   3.62120   3.62616   3.62927
 Alpha virt. eigenvalues --    3.63298   3.63470   3.63920   3.64008   3.64370
 Alpha virt. eigenvalues --    3.64786   3.65124   3.65466   3.65759   3.66289
 Alpha virt. eigenvalues --    3.66405   3.66702   3.67057   3.67358   3.67796
 Alpha virt. eigenvalues --    3.68127   3.68375   3.69102   3.69480   3.69615
 Alpha virt. eigenvalues --    3.69842   3.70065   3.70217   3.70527   3.71034
 Alpha virt. eigenvalues --    3.71428   3.72083   3.72358   3.72559   3.72800
 Alpha virt. eigenvalues --    3.73646   3.73887   3.74433   3.74510   3.74609
 Alpha virt. eigenvalues --    3.75243   3.75464   3.75777   3.76178   3.76442
 Alpha virt. eigenvalues --    3.76918   3.76979   3.77432   3.77538   3.77915
 Alpha virt. eigenvalues --    3.78218   3.78362   3.78930   3.79055   3.79429
 Alpha virt. eigenvalues --    3.80004   3.80219   3.80569   3.80719   3.81464
 Alpha virt. eigenvalues --    3.82077   3.82343   3.83428   3.83827   3.84067
 Alpha virt. eigenvalues --    3.84608   3.84738   3.85094   3.85420   3.86412
 Alpha virt. eigenvalues --    3.86576   3.86775   3.86951   3.87604   3.88092
 Alpha virt. eigenvalues --    3.88347   3.88821   3.89209   3.89770   3.90572
 Alpha virt. eigenvalues --    3.91184   3.91740   3.92109   3.92632   3.92871
 Alpha virt. eigenvalues --    3.93417   3.93683   3.93773   3.94129   3.94510
 Alpha virt. eigenvalues --    3.95013   3.95687   3.96061   3.96399   3.96694
 Alpha virt. eigenvalues --    3.97255   3.97712   3.97962   3.98709   3.99144
 Alpha virt. eigenvalues --    3.99532   3.99903   4.00643   4.01365   4.01515
 Alpha virt. eigenvalues --    4.01642   4.02644   4.03352   4.03798   4.04275
 Alpha virt. eigenvalues --    4.04642   4.05107   4.05640   4.06040   4.06522
 Alpha virt. eigenvalues --    4.07187   4.07238   4.08157   4.08879   4.09690
 Alpha virt. eigenvalues --    4.10171   4.10960   4.11125   4.12014   4.12443
 Alpha virt. eigenvalues --    4.12670   4.14097   4.14533   4.15290   4.16039
 Alpha virt. eigenvalues --    4.16556   4.16881   4.17423   4.17920   4.18019
 Alpha virt. eigenvalues --    4.19212   4.19551   4.20263   4.20664   4.21424
 Alpha virt. eigenvalues --    4.21721   4.21918   4.22540   4.22781   4.22934
 Alpha virt. eigenvalues --    4.23190   4.23982   4.24408   4.24701   4.25233
 Alpha virt. eigenvalues --    4.25771   4.26801   4.26861   4.27383   4.27774
 Alpha virt. eigenvalues --    4.28766   4.28938   4.29367   4.29790   4.30297
 Alpha virt. eigenvalues --    4.31070   4.31493   4.31978   4.32700   4.32916
 Alpha virt. eigenvalues --    4.33971   4.34315   4.34783   4.34909   4.35695
 Alpha virt. eigenvalues --    4.35984   4.36453   4.36999   4.37091   4.37538
 Alpha virt. eigenvalues --    4.37988   4.38608   4.38931   4.39503   4.39740
 Alpha virt. eigenvalues --    4.40080   4.40189   4.40676   4.40970   4.41719
 Alpha virt. eigenvalues --    4.41743   4.42078   4.42308   4.42474   4.42854
 Alpha virt. eigenvalues --    4.43120   4.43721   4.44211   4.44880   4.45367
 Alpha virt. eigenvalues --    4.46118   4.46626   4.47109   4.47444   4.48305
 Alpha virt. eigenvalues --    4.48954   4.49600   4.49916   4.50099   4.50490
 Alpha virt. eigenvalues --    4.50856   4.50991   4.51526   4.51787   4.52287
 Alpha virt. eigenvalues --    4.52609   4.53257   4.53765   4.54213   4.55179
 Alpha virt. eigenvalues --    4.55708   4.56184   4.57297   4.58566   4.58960
 Alpha virt. eigenvalues --    4.59681   4.60460   4.61655   4.61908   4.62657
 Alpha virt. eigenvalues --    4.63719   4.63779   4.64951   4.65388   4.66294
 Alpha virt. eigenvalues --    4.66531   4.67545   4.67820   4.68495   4.69693
 Alpha virt. eigenvalues --    4.70051   4.70181   4.70681   4.71049   4.71710
 Alpha virt. eigenvalues --    4.71978   4.72648   4.73232   4.73515   4.74121
 Alpha virt. eigenvalues --    4.74274   4.74799   4.75141   4.76023   4.76269
 Alpha virt. eigenvalues --    4.77269   4.77866   4.78182   4.78790   4.79206
 Alpha virt. eigenvalues --    4.79916   4.81031   4.81608   4.82072   4.82453
 Alpha virt. eigenvalues --    4.83257   4.84069   4.84354   4.85330   4.85483
 Alpha virt. eigenvalues --    4.85880   4.86338   4.86721   4.86828   4.87102
 Alpha virt. eigenvalues --    4.88003   4.88490   4.89335   4.90261   4.91167
 Alpha virt. eigenvalues --    4.91779   4.92366   4.92704   4.93532   4.94360
 Alpha virt. eigenvalues --    4.94621   4.95598   4.96122   4.96551   4.97157
 Alpha virt. eigenvalues --    4.97579   4.98388   4.99636   5.00371   5.00739
 Alpha virt. eigenvalues --    5.01553   5.01658   5.02247   5.02856   5.04328
 Alpha virt. eigenvalues --    5.04879   5.05041   5.05358   5.06045   5.07037
 Alpha virt. eigenvalues --    5.07556   5.08738   5.09609   5.09993   5.11085
 Alpha virt. eigenvalues --    5.11535   5.12572   5.13260   5.14044   5.15242
 Alpha virt. eigenvalues --    5.16565   5.17014   5.17647   5.18230   5.19121
 Alpha virt. eigenvalues --    5.19739   5.21209   5.21513   5.21812   5.22769
 Alpha virt. eigenvalues --    5.23301   5.23562   5.23825   5.24047   5.24564
 Alpha virt. eigenvalues --    5.25724   5.26208   5.27229   5.27588   5.28792
 Alpha virt. eigenvalues --    5.29670   5.31525   5.32533   5.32758   5.33830
 Alpha virt. eigenvalues --    5.33963   5.35312   5.35883   5.36459   5.38095
 Alpha virt. eigenvalues --    5.38280   5.38442   5.39218   5.39830   5.40975
 Alpha virt. eigenvalues --    5.41835   5.43916   5.44063   5.44695   5.45440
 Alpha virt. eigenvalues --    5.46081   5.46936   5.47648   5.48273   5.48398
 Alpha virt. eigenvalues --    5.49314   5.49827   5.51173   5.51722   5.53191
 Alpha virt. eigenvalues --    5.54295   5.55659   5.56097   5.57458   5.58663
 Alpha virt. eigenvalues --    5.59235   5.59847   5.61597   5.61996   5.62522
 Alpha virt. eigenvalues --    5.62814   5.63801   5.64140   5.64977   5.65869
 Alpha virt. eigenvalues --    5.66229   5.68257   5.69154   5.70222   5.71479
 Alpha virt. eigenvalues --    5.72119   5.74685   5.76489   5.78490   5.80313
 Alpha virt. eigenvalues --    5.81721   5.83512   5.84664   5.85403   5.86472
 Alpha virt. eigenvalues --    5.87800   5.92538   5.96225   5.98368   5.99395
 Alpha virt. eigenvalues --    5.99623   6.00892   6.01929   6.03087   6.03880
 Alpha virt. eigenvalues --    6.04807   6.06405   6.08000   6.08329   6.09661
 Alpha virt. eigenvalues --    6.11689   6.12591   6.13418   6.15021   6.16590
 Alpha virt. eigenvalues --    6.18721   6.18904   6.19164   6.21405   6.24243
 Alpha virt. eigenvalues --    6.26462   6.28133   6.29022   6.31235   6.31664
 Alpha virt. eigenvalues --    6.35453   6.36032   6.37703   6.42590   6.47610
 Alpha virt. eigenvalues --    6.48782   6.50389   6.53851   6.54037   6.65145
 Alpha virt. eigenvalues --    6.70569   6.74224   6.76396   6.86656   6.88576
 Alpha virt. eigenvalues --    6.92424   6.94189   6.98683   7.02503   7.12707
 Alpha virt. eigenvalues --    7.14283   7.14999   7.18325   7.25314   7.38895
 Alpha virt. eigenvalues --   22.40644  22.41255  22.48179  22.50831  22.53109
 Alpha virt. eigenvalues --   22.53365  22.53841  22.55831  22.60457  22.61840
 Alpha virt. eigenvalues --   22.62953  22.67740  22.71419  22.72148  22.83985
 Alpha virt. eigenvalues --   22.84771  22.88872  22.90103  22.92702  22.96048
 Alpha virt. eigenvalues --   22.98803  23.06000  23.06911  23.14655  23.15985
 Alpha virt. eigenvalues --   23.17184  23.24479  23.26100  23.29835  23.33644
 Alpha virt. eigenvalues --   23.36411  23.37083  23.41323  23.45998  23.47028
 Alpha virt. eigenvalues --   23.48866  23.54815  23.63529  23.68369  23.72170
 Alpha virt. eigenvalues --   23.76236  23.86617  32.49146  32.49863  32.82053
 Alpha virt. eigenvalues --   32.88805  33.04184  33.07578  33.10593  33.42127
 Alpha virt. eigenvalues --   43.93326  43.95749  43.97827  43.98807
          Condensed to atoms (all electrons):
 Mulliken charges:
               1
     1  C   -0.368918
     2  C    0.171625
     3  N   -0.228670
     4  C   -0.210023
     5  C    0.023481
     6  N    0.119874
     7  C   -0.382527
     8  C    0.150465
     9  N   -0.212004
    10  C   -0.180292
    11  C    0.014787
    12  N    0.071749
    13  Fe  -0.448898
    14  C   -0.591016
    15  C   -0.522337
    16  C   -0.503163
    17  C   -0.540836
    18  N    0.000889
    19  C    0.256519
    20  C    0.072984
    21  C   -0.059839
    22  C    0.185972
    23  C   -0.410207
    24  C   -0.445431
    25  C   -0.118127
    26  C    0.245893
    27  O   -0.398003
    28  O   -0.318211
    29  N    0.002192
    30  C    0.256246
    31  C   -0.067237
    32  C    0.006292
    33  C    0.177537
    34  C   -0.357490
    35  C   -0.321149
    36  C   -0.325199
    37  N    0.014734
    38  C    0.331557
    39  C   -0.110556
    40  C    0.033388
    41  C    0.192471
    42  C   -0.362899
    43  C   -0.328806
    44  C   -0.309666
    45  N   -0.053595
    46  C    0.236830
    47  C   -0.038051
    48  C   -0.148397
    49  C    0.298889
    50  C   -0.378545
    51  C   -0.221401
    52  C   -0.232977
    53  C    0.328100
    54  O   -0.334846
    55  O   -0.373715
    56  H    0.344921
    57  H    0.343032
    58  H    0.137187
    59  H    0.122254
    60  H    0.156607
    61  H    0.129129
    62  H    0.118079
    63  H    0.129029
    64  H    0.124323
    65  H    0.155736
    66  H    0.175549
    67  H    0.126034
    68  H    0.128551
    69  H    0.129553
    70  H    0.087296
    71  H    0.114650
    72  H    0.131301
    73  H    0.122858
    74  H    0.133072
    75  H    0.129674
    76  H    0.119401
    77  H    0.122973
    78  H    0.093370
    79  H    0.132707
    80  H    0.117864
    81  H    0.133766
    82  H    0.143607
    83  H    0.118177
    84  H    0.131456
    85  H    0.113907
    86  H    0.108637
    87  H    0.140958
    88  H    0.137575
    89  H    0.127852
    90  H    0.128864
    91  H    0.143616
    92  H    0.145872
    93  H    0.226818
    94  H    0.180041
    95  H    0.149041
    96  H    0.147696
    97  H    0.119605
    98  H    0.150336
    99  H    0.142061
   100  H    0.221636
   101  H    0.173885
 Sum of Mulliken charges =  -0.00000
 Mulliken charges with hydrogens summed into heavy atoms:
               1
     1  C    0.048719
     2  C    0.171625
     3  N   -0.007034
     4  C   -0.067962
     5  C    0.197366
     6  N    0.119874
     7  C    0.035825
     8  C    0.150465
     9  N    0.014815
    10  C   -0.031251
    11  C    0.194827
    12  N    0.071749
    13  Fe  -0.448898
    14  C   -0.415467
    15  C   -0.413700
    16  C   -0.409794
    17  C   -0.453540
    18  N    0.000889
    19  C    0.256519
    20  C    0.072984
    21  C   -0.059839
    22  C    0.185972
    23  C   -0.003821
    24  C   -0.159695
    25  C    0.141315
    26  C    0.245893
    27  O   -0.398003
    28  O    0.024821
    29  N    0.002192
    30  C    0.256246
    31  C   -0.067237
    32  C    0.006292
    33  C    0.177537
    34  C    0.006050
    35  C   -0.177542
    36  C    0.059139
    37  N    0.014734
    38  C    0.331557
    39  C   -0.110556
    40  C    0.033388
    41  C    0.192471
    42  C    0.005910
    43  C   -0.195735
    44  C    0.062382
    45  N   -0.053595
    46  C    0.236830
    47  C   -0.038051
    48  C   -0.148397
    49  C    0.298889
    50  C    0.005592
    51  C    0.058659
    52  C    0.014131
    53  C    0.328100
    54  O    0.010076
    55  O   -0.373715
 Electronic spatial extent (au):  <R**2>=          34204.1395
 Charge=             -0.0000 electrons
 Dipole moment (field-independent basis, Debye):
    X=             -2.5110    Y=              4.6387    Z=              2.6076  Tot=              5.8840
 Quadrupole moment (field-independent basis, Debye-Ang):
   XX=           -329.1735   YY=           -290.7104   ZZ=           -282.6976
   XY=            -22.6919   XZ=            -15.4663   YZ=              3.4444
 Traceless Quadrupole moment (field-independent basis, Debye-Ang):
   XX=            -28.3130   YY=             10.1501   ZZ=             18.1629
   XY=            -22.6919   XZ=            -15.4663   YZ=              3.4444
 Octapole moment (field-independent basis, Debye-Ang**2):
  XXX=           -125.2127  YYY=            118.6971  ZZZ=             49.3887  XYY=           -224.3802
  XXY=            122.4857  XXZ=            198.2279  XZZ=             12.8174  YZZ=             64.7175
  YYZ=             36.2701  XYZ=              9.2559
 Hexadecapole moment (field-independent basis, Debye-Ang**3):
 XXXX=         -22785.1343 YYYY=         -14257.9129 ZZZZ=          -5617.0721 XXXY=           -704.6110
 XXXZ=          -1461.7594 YYYX=           -649.4038 YYYZ=            220.7052 ZZZX=            141.0006
 ZZZY=            193.5604 XXYY=          -5449.9952 XXZZ=          -5363.5526 YYZZ=          -3568.6780
 XXYZ=           -109.1096 YYXZ=           -317.5030 ZZXY=           -158.9759
 N-N= 8.998611080569D+03 E-N=-2.652279441803D+04  KE= 3.615782795745D+03
  Exact polarizability: 892.540 -24.9301060.917 -25.869 -43.594 454.696
 Approx polarizability:1678.190-713.5347781.768 -50.800-295.992 712.967

 ----------------------------------------------------------------------

 Electric dipole moment (input orientation):
 (Debye = 10**-18 statcoulomb cm , SI units = C m)
                  (au)            (Debye)         (10**-30 SI)
   Tot        0.231496D+01      0.588404D+01      0.196270D+02
   x         -0.455673D+00     -0.115821D+01     -0.386336D+01
   y          0.224386D+01      0.570332D+01      0.190242D+02
   z         -0.341299D+00     -0.867495D+00     -0.289365D+01

 Dipole polarizability, Alpha (input orientation).
 (esu units = cm**3 , SI units = C**2 m**2 J**-1)
 Alpha(0;0):
               (au)            (10**-24 esu)      (10**-40 SI)
   iso        0.802717D+03      0.118950D+03      0.132350D+03
   aniso      0.550776D+03      0.816166D+02      0.908107D+02
   xx         0.522199D+03      0.773819D+02      0.860990D+02
   yx         0.186367D+03      0.276167D+02      0.307278D+02
   yy         0.997811D+03      0.147860D+03      0.164517D+03
   zx         0.655012D+02      0.970627D+01      0.107997D+02
   zy         0.838249D+01      0.124216D+01      0.138209D+01
   zz         0.888142D+03      0.131609D+03      0.146435D+03

 First dipole hyperpolarizability, Beta (input orientation).
 ||, _|_  parallel and perpendicular components, (z) with respect to z axis,
 vector components x,y,z.  Values do not include the 1/n! factor of 1/2.
 (esu units = statvolt**-1 cm**4 , SI units = C**3 m**3 J**-2)
 Beta(0;0,0):
               (au)            (10**-30 esu)      (10**-50 SI)
   || (z)     0.123107D+04      0.106355D+02      0.394725D+01
   _|_(z)     0.410356D+03      0.354515D+01      0.131575D+01
   x          0.136875D+04      0.118249D+02      0.438870D+01
   y          0.284383D+04      0.245685D+02      0.911834D+01
   z          0.615534D+04      0.531773D+02      0.197362D+02
   ||         0.138346D+04      0.119520D+02      0.443587D+01
   xxx       -0.318607D+02     -0.275251D+00     -0.102157D+00
   xxy        0.352836D+02      0.304822D+00      0.113132D+00
   yxy        0.335059D+03      0.289464D+01      0.107432D+01
   yyy        0.150695D+04      0.130189D+02      0.483184D+01
   xxz       -0.846010D+02     -0.730887D+00     -0.271261D+00
   yxz       -0.296401D+03     -0.256067D+01     -0.950369D+00
   yyz       -0.133261D+03     -0.115127D+01     -0.427284D+00
   zxz        0.153051D+03      0.132224D+01      0.490738D+00
   zyz       -0.594294D+03     -0.513423D+01     -0.190552D+01
   zzz        0.226964D+04      0.196079D+02      0.727729D+01

 ----------------------------------------------------------------------

 Dipole orientation:
     6          9.69611006        -30.90753352         -0.61174201
     6         12.31905443        -29.89976490         -0.93374538
     7         13.46876588        -28.35135855          0.80979843
     6         14.04168664        -30.10499128         -2.76881724
     6         15.78865215        -27.68651565          0.01947000
     7         16.19876548        -28.75427970         -2.17280049
     6         27.04425777        -23.49790291         -9.56625714
     6         25.56716233        -25.37189450         -8.05281820
     7         26.67806039        -27.16256636         -6.49206281
     6         23.06654412        -25.70652590         -7.75658646
     6         24.90619788        -28.48008473         -5.32117901
     7         22.64379168        -27.61827185         -6.05675092
    26         19.40322259        -28.17385875         -4.16589550
     6         21.41678740        -23.04511004         -0.77436232
     6         16.10017087        -24.25143703         -8.07339816
     6         18.18548775        -33.21173382         -8.07663161
     6         22.15729952        -32.12648833          0.17326522
     7         18.76029148        -24.44509237         -4.32749869
     6         19.78337777        -22.56166912         -2.75890178
     6         18.90892679        -20.12094667         -3.56413564
     6         17.35167603        -20.46735806         -5.53945886
     6         17.31344631        -23.14150798         -6.06984947
     6         15.90805539        -18.44342256         -7.08726246
     6         19.65638130        -17.60179738         -2.32071209
     6         21.96360724        -16.37451365         -3.60030438
     6         22.70966586        -13.95732632         -2.36400455
     8         24.99250779        -13.34865413         -2.37668785
     8         21.10202728        -12.58281901         -1.34581702
     7         17.54112105        -28.61531157         -7.44216769
     6         16.33933942        -26.77968677         -8.80541408
     6         15.41760167        -27.84700140        -11.17074374
     6         16.05178794        -30.34348722        -11.19059338
     6         17.33430818        -30.82491782         -8.82769879
     6         14.00874831        -26.38637270        -13.25288018
     6         15.51922063        -32.38408418        -13.21390000
     6         16.67500652        -31.67564828        -15.76158114
     7         20.02379250        -31.90339049         -3.96940574
     6         19.31165058        -33.70269247         -5.76278047
     6         19.86747198        -36.20462287         -4.80905033
     6         20.94253563        -35.92159562         -2.47821635
     6         21.06242027        -33.26046696         -1.95841878
     6         19.17085287        -38.61875579         -6.28526313
     6         21.73441947        -37.91676462         -0.54418641
     6         23.69654599        -39.94216489         -1.26317921
     7         21.35332490        -27.67741518         -0.98412134
     6         22.41413703        -29.56727731          0.53938904
     6         23.99345663        -28.44282545          2.44581639
     6         24.07361706        -25.90527774          1.97257512
     6         22.24715987        -25.40250493          0.00332067
     6         25.39287797        -29.88868378          4.54597926
     6         25.87545219        -23.97941538          3.24784772
     6         25.06108053        -23.29103848          5.97468562
     6         23.27315839        -21.06164993          6.12497752
     8         21.87212584        -20.75029544          8.03779651
     8         23.24016240        -19.49059611          4.33825580
     1         22.58854227        -20.79536172          9.70387270
     1         21.61864241        -11.08906259         -0.45537113
     1         23.52098348        -17.66133715         -3.51558931
     1         21.51989182        -16.00888597         -5.53884639
     1         20.08925314        -17.93642909         -0.37413671
     1         18.09094366        -16.32697604         -2.43361763
     1         24.15485112        -24.89895178          6.80044297
     1         26.71765006        -22.86054882          7.05123945
     1         27.73641123        -24.76819318          3.30417875
     1         25.91639997        -22.29143850          2.13538676
     1         22.10302798        -21.44678442          0.25662809
     1         27.33715814        -29.33380436          4.56586751
     1         24.55163035        -29.46117222          6.33428806
[...]
  1707. RY*(   5) H  68                  0.00001     3.00544   
  1708. RY*(   1) H  69                  0.00055     1.31646   
  1709. RY*(   2) H  69                  0.00018     1.90603   
  1710. RY*(   3) H  69                  0.00007     2.13312   
  1711. RY*(   4) H  69                  0.00003     1.80316   
  1712. RY*(   5) H  69                  0.00001     2.95679   
  1713. RY*(   1) H  70                  0.00292     0.68505   
  1714. RY*(   2) H  70                  0.00028     2.15655   
  1715. RY*(   3) H  70                  0.00025     2.27978   
  1716. RY*(   4) H  70                  0.00015     3.00731   
  1717. RY*(   5) H  70                  0.00001     3.22412   
  1718. RY*(   1) H  71                  0.00102     0.86510   
  1719. RY*(   2) H  71                  0.00017     1.98686   
  1720. RY*(   3) H  71                  0.00009     1.99065   
  1721. RY*(   4) H  71                  0.00006     2.20963   
  1722. RY*(   5) H  71                  0.00001     2.97419   
  1723. RY*(   1) H  72                  0.00139     0.84790   
  1724. RY*(   2) H  72                  0.00016     1.77163   
  1725. RY*(   3) H  72                  0.00007     2.16169   
  1726. RY*(   4) H  72                  0.00005     2.12491   
  1727. RY*(   5) H  72                  0.00001     3.00761   
  1728. RY*(   1) H  73                  0.00043     1.36313   
  1729. RY*(   2) H  73                  0.00021     1.94093   
  1730. RY*(   3) H  73                  0.00007     2.17177   
  1731. RY*(   4) H  73                  0.00001     2.94341   
  1732. RY*(   5) H  73                  0.00001     1.78932   
  1733. RY*(   1) H  74                  0.00071     1.38597   
  1734. RY*(   2) H  74                  0.00032     1.39721   
  1735. RY*(   3) H  74                  0.00023     1.85477   
  1736. RY*(   4) H  74                  0.00007     2.36146   
  1737. RY*(   5) H  74                  0.00003     3.03298   
  1738. RY*(   1) H  75                  0.00150     0.98532   
  1739. RY*(   2) H  75                  0.00013     1.70176   
  1740. RY*(   3) H  75                  0.00009     2.10581   
  1741. RY*(   4) H  75                  0.00004     1.94332   
  1742. RY*(   5) H  75                  0.00001     2.86512   
  1743. RY*(   1) H  76                  0.00105     1.11524   
  1744. RY*(   2) H  76                  0.00012     1.65734   
  1745. RY*(   3) H  76                  0.00008     2.06475   
  1746. RY*(   4) H  76                  0.00004     1.93743   
  1747. RY*(   5) H  76                  0.00001     2.86639   
  1748. RY*(   1) H  77                  0.00103     1.02588   
  1749. RY*(   2) H  77                  0.00010     1.83426   
  1750. RY*(   3) H  77                  0.00010     2.05700   
  1751. RY*(   4) H  77                  0.00006     1.99738   
  1752. RY*(   5) H  77                  0.00001     2.96425   
  1753. RY*(   1) H  78                  0.00271     0.72939   
  1754. RY*(   2) H  78                  0.00029     2.14182   
  1755. RY*(   3) H  78                  0.00024     2.27381   
  1756. RY*(   4) H  78                  0.00014     3.02341   
  1757. RY*(   5) H  78                  0.00001     3.26492   
  1758. RY*(   1) H  79                  0.00142     1.03531   
  1759. RY*(   2) H  79                  0.00013     1.67873   
  1760. RY*(   3) H  79                  0.00008     2.10849   
  1761. RY*(   4) H  79                  0.00004     1.95994   
  1762. RY*(   5) H  79                  0.00001     2.85090   
  1763. RY*(   1) H  80                  0.00135     1.08110   
  1764. RY*(   2) H  80                  0.00012     1.63509   
  1765. RY*(   3) H  80                  0.00008     2.10254   
  1766. RY*(   4) H  80                  0.00004     1.93468   
  1767. RY*(   5) H  80                  0.00001     2.92819   
  1768. RY*(   1) H  81                  0.00072     1.16860   
  1769. RY*(   2) H  81                  0.00014     2.06052   
  1770. RY*(   3) H  81                  0.00008     1.91304   
  1771. RY*(   4) H  81                  0.00004     1.83216   
  1772. RY*(   5) H  81                  0.00001     2.98945   
  1773. RY*(   1) H  82                  0.00065     1.60759   
  1774. RY*(   2) H  82                  0.00029     1.57405   
  1775. RY*(   3) H  82                  0.00025     1.38562   
  1776. RY*(   4) H  82                  0.00007     2.32985   
  1777. RY*(   5) H  82                  0.00004     3.01502   
  1778. RY*(   1) H  83                  0.00127     0.82326   
  1779. RY*(   2) H  83                  0.00016     1.94995   
  1780. RY*(   3) H  83                  0.00012     2.03632   
  1781. RY*(   4) H  83                  0.00006     2.19249   
  1782. RY*(   5) H  83                  0.00001     3.02827   
  1783. RY*(   1) H  84                  0.00131     0.86172   
  1784. RY*(   2) H  84                  0.00016     1.74693   
  1785. RY*(   3) H  84                  0.00008     2.17359   
  1786. RY*(   4) H  84                  0.00006     2.14652   
  1787. RY*(   5) H  84                  0.00001     3.02177   
  1788. RY*(   1) H  85                  0.00050     1.25281   
  1789. RY*(   2) H  85                  0.00017     1.93458   
  1790. RY*(   3) H  85                  0.00007     2.16739   
  1791. RY*(   4) H  85                  0.00004     1.85831   
  1792. RY*(   5) H  85                  0.00001     2.94058   
  1793. RY*(   1) H  86                  0.00170     0.62580   
  1794. RY*(   2) H  86                  0.00026     2.24944   
  1795. RY*(   3) H  86                  0.00024     2.23361   
  1796. RY*(   4) H  86                  0.00013     3.03492   
  1797. RY*(   5) H  86                  0.00001     3.22097   
  1798. RY*(   1) H  87                  0.00082     1.00610   
  1799. RY*(   2) H  87                  0.00018     1.79083   
  1800. RY*(   3) H  87                  0.00008     2.15779   
  1801. RY*(   4) H  87                  0.00004     2.05225   
  1802. RY*(   5) H  87                  0.00001     2.97521   
  1803. RY*(   1) H  88                  0.00072     1.02668   
  1804. RY*(   2) H  88                  0.00018     1.80371   
  1805. RY*(   3) H  88                  0.00007     2.20135   
  1806. RY*(   4) H  88                  0.00005     2.06382   
  1807. RY*(   5) H  88                  0.00000     2.91647   
  1808. RY*(   1) H  89                  0.00065     1.13362   
  1809. RY*(   2) H  89                  0.00015     1.89074   
  1810. RY*(   3) H  89                  0.00007     2.12153   
  1811. RY*(   4) H  89                  0.00005     1.89947   
  1812. RY*(   5) H  89                  0.00000     2.99079   
  1901. BD*(   1)Fe  13 - N  29          0.16196     0.27477  195(g),943(g),498(r),343(r)
                                                    655(r),1149(r),529(g)
                                                    1359(r),657(r),1151(r)
                                                    345(r),944(g),499(r),502(r)
                                                    501(r),1868(r),1838(r)
                                                    342(r),1833(r),1858(r)
                                                    318(r),1880(r),505(r)
                                                    1884(r),349(r),1878(r)
                                                    474(r),1899(r),347(r),500(r)
                                                    1894(r),1898(r),1892(r)
                                                    472(r)
  1902. BD*(   1) C  14 - C  19          0.02062     0.59280   
  1903. BD*(   1) C  14 - C  49          0.02104     0.58993   
  1904. BD*(   1) C  14 - H  66          0.01491     0.48078   
  1905. BD*(   1) C  15 - C  22          0.02088     0.60831   
  1906. BD*(   2) C  15 - C  22          0.37638     0.06572  1940(v),1922(v),1918(v)
                                                    1910(r),577(g),763(g)
  1907. BD*(   1) C  15 - C  30          0.02107     0.57150   
  1908. BD*(   1) C  15 - H  86          0.01334     0.46325   
  1909. BD*(   1) C  16 - C  33          0.02045     0.57890   
  1910. BD*(   2) C  16 - C  33          0.39285     0.06455  1944(v),1940(v),206(v)
                                                    1906(r),603(g),1049(g)
  1911. BD*(   1) C  16 - C  38          0.01998     0.59373   
  1912. BD*(   1) C  16 - H  78          0.01474     0.47360   
  1913. BD*(   1) C  17 - C  41          0.02097     0.56520   
  1914. BD*(   1) C  17 - C  46          0.02034     0.60248   
  1915. BD*(   2) C  17 - C  46          0.41257     0.06175  1979(v),1959(v),1976(v)
                                                    629(g),1387(g),1385(g)
                                                    1899(r)
  1916. BD*(   1) C  17 - H  70          0.01551     0.46651   
  1917. BD*(   1) N  18 - C  19          0.02849     0.47114   
  1918. BD*(   2) N  18 - C  19          0.61818     0.01599  199(v),1922(v),1906(v)
                                                    1976(r),683(g),656(g)
                                                    1885(r),551(v),198(r)
                                                    1899(r),1893(r)
  1919. BD*(   1) N  18 - C  22          0.02735     0.49972   
  1920. BD*(   1) C  19 - C  20          0.03185     0.52020   
  1921. BD*(   1) C  20 - C  21          0.01922     0.64330   
  1922. BD*(   2) C  20 - C  21          0.23404     0.08542  1906(v),1918(v),1929(v)
                                                    1926(v),1927(v)
  1923. BD*(   1) C  20 - C  24          0.02527     0.39060   
  1924. BD*(   1) C  21 - C  22          0.03384     0.51152   
  1925. BD*(   1) C  21 - C  23          0.01908     0.36750   
  1926. BD*(   1) C  23 - H  87          0.00851     0.41669   
  1927. BD*(   1) C  23 - H  88          0.00777     0.41781   
  1928. BD*(   1) C  23 - H  89          0.00496     0.42224   
  1929. BD*(   1) C  24 - C  25          0.01780     0.35789   
  1930. BD*(   1) C  24 - H  60          0.01259     0.43139   
  1931. BD*(   1) C  24 - H  61          0.01268     0.42468   
  1932. BD*(   1) C  25 - C  26          0.05826     0.38423   
  1933. BD*(   1) C  25 - H  58          0.00973     0.41294   
  1934. BD*(   1) C  25 - H  59          0.01234     0.39758   
  1935. BD*(   1) C  26 - O  27          0.03410     0.56347   
  1936. BD*(   2) C  26 - O  27          0.24441     0.02555  1935(g),1934(v),865(g)
                                                    1929(v)
  1937. BD*(   1) C  26 - O  28          0.07047     0.51806   
  1938. BD*(   1) O  28 - H  57          0.01433     0.39107   
  1939. BD*(   1) N  29 - C  30          0.02583     0.53001   
  1940. BD*(   2) N  29 - C  30          0.62342     0.03004  1906(v),1910(v),1944(v)
                                                    969(g),941(g),198(v),968(g)
                                                    577(v),1899(r),1885(r)
  1941. BD*(   1) N  29 - C  33          0.02832     0.50805   
  1942. BD*(   1) C  30 - C  31          0.03442     0.50045   
  1943. BD*(   1) C  31 - C  32          0.02223     0.61226   
  1944. BD*(   2) C  31 - C  32          0.33414     0.08751  1910(v),1940(v),1952(v)
                                                    1949(v),1951(v),1953(v)
                                                    1943(g),1948(v),1021(g)
  1945. BD*(   1) C  31 - C  34          0.01847     0.38719   
  1946. BD*(   1) C  32 - C  33          0.04011     0.51288   
  1947. BD*(   1) C  32 - C  35          0.02235     0.39417   
  1948. BD*(   1) C  34 - H  83          0.00918     0.42940   
  1949. BD*(   1) C  34 - H  84          0.01094     0.42648   
  1950. BD*(   1) C  34 - H  85          0.00507     0.43011   
  1951. BD*(   1) C  35 - C  36          0.00532     0.38339   
  1952. BD*(   1) C  35 - C  43          0.42415    -0.09657  1962(v),1944(v),1971(v)
                                                    1954(v),1946(v),1964(v)
                                                    1955(v),1961(v),1943(v)
  1953. BD*(   1) C  35 - H  82          0.01207     0.46286   
  1954. BD*(   1) C  36 - H  79          0.01567     0.41939   
  1955. BD*(   1) C  36 - H  80          0.01420     0.41792   
  1956. BD*(   1) C  36 - H  81          0.00621     0.42662   
  1957. BD*(   1) N  37 - C  38          0.02757     0.48405   
  1958. BD*(   1) N  37 - C  41          0.02780     0.48206   
  1959. BD*(   2) N  37 - C  41          0.57841     0.01948  1915(v),1962(v),206(v)
                                                    1255(g),1885(r),1150(g)
                                                    198(r)
  1960. BD*(   1) C  38 - C  39          0.03171     0.51277   
  1961. BD*(   1) C  39 - C  40          0.02295     0.61255   
  1962. BD*(   2) C  39 - C  40          0.35735     0.08615  1959(v),206(v),1952(v)
                                                    1967(v),1969(v),1970(v)
                                                    1961(g),1966(v),1229(g)
                                                    1205(g)
  1963. BD*(   1) C  39 - C  42          0.01756     0.38408   
  1964. BD*(   1) C  40 - C  41          0.03746     0.51988   
  1965. BD*(   1) C  40 - C  43          0.02380     0.41258   
  1966. BD*(   1) C  42 - H  71          0.00774     0.42943   
  1967. BD*(   1) C  42 - H  72          0.01082     0.42686   
  1968. BD*(   1) C  42 - H  73          0.00519     0.43425   
  1969. BD*(   1) C  43 - C  44          0.00732     0.37274   
  1970. BD*(   1) C  43 - H  74          0.01244     0.46174   
  1971. BD*(   1) C  44 - H  75          0.01627     0.41485   
  1972. BD*(   1) C  44 - H  76          0.01090     0.41641   
  1973. BD*(   1) C  44 - H  77          0.00770     0.42238   
  1974. BD*(   1) N  45 - C  46          0.02950     0.47346   
  1975. BD*(   1) N  45 - C  49          0.02789     0.48201   
  1976. BD*(   2) N  45 - C  49          0.63480     0.01445  199(v),1979(v),1915(v)
                                                    1918(r),1463(g),1994(r)
                                                    551(v),1357(g),198(r)
                                                    1885(r),1899(r)
  1977. BD*(   1) C  46 - C  47          0.03279     0.51173   
  1978. BD*(   1) C  47 - C  48          0.01961     0.60115   
  1979. BD*(   2) C  47 - C  48          0.26047     0.07269  1915(v),1976(v),1986(v)
                                                    1984(v),1983(v),1987(v)
  1980. BD*(   1) C  47 - C  50          0.01872     0.37214   
  1981. BD*(   1) C  48 - C  49          0.03239     0.50604   
  1982. BD*(   1) C  48 - C  51          0.02357     0.36848   
  1983. BD*(   1) C  50 - H  67          0.00816     0.40943   
  1984. BD*(   1) C  50 - H  68          0.00959     0.40707   
  1985. BD*(   1) C  50 - H  69          0.00596     0.42007   
  1986. BD*(   1) C  51 - C  52          0.01638     0.33545   
  1987. BD*(   1) C  51 - H  64          0.01214     0.41668   
  1988. BD*(   1) C  51 - H  65          0.01188     0.42906   
  1989. BD*(   1) C  52 - C  53          0.07760     0.33822   
  1990. BD*(   1) C  52 - H  62          0.01194     0.38758   
  1991. BD*(   1) C  52 - H  63          0.01073     0.37944   
  1992. BD*(   1) C  53 - O  54          0.06890     0.46355   
  1993. BD*(   1) C  53 - O  55          0.05033     0.50357   
  1994. BD*(   2) C  53 - O  55          0.18413     0.01399  1993(g),1995(v),1991(v)
  1995. BD*(   1) O  54 - H  56          0.01406     0.36380   
       -------------------------------
              Total Lewis  314.76496  ( 96.9597%)
        Valence non-Lewis    9.22768  (  2.8425%)
        Rydberg non-Lewis    0.64219  (  0.1978%)
       -------------------------------
            Total unit  3  324.63482  (100.0000%)
           Charge unit  3   -0.63482
 1\1\GINC-NODE474\SP\RPBE1PBE\def2TZVP\C42H46Fe1N8O4\ZHARTOVSKA\22-Oct-
 2022\0\\# PBE1PBE/def2TZVP empiricaldispersion=GD3BJ int=(grid=ultrafi
 ne) geom=check guess=read pop=nbo scf=qc\\1gu2_II_S_nbo\\0,1\C,0,7.741
 ,3.503,14.891\C,0,9.027,3.472,14.126\N,0,9.297,4.319,13.076\C,0,10.117
 ,2.702,14.195\C,0,10.507,4.054,12.555\N,0,11.039,3.068,13.231\C,0,16.8
 92,-0.274,9.982\C,0,16.143999,0.552,10.979\N,0,16.707001,1.622,11.66\C
 ,0,14.864,0.516,11.388\C,0,15.795,2.193,12.429\N,0,14.639,1.534,12.28\
 Fe,0,12.834,2.272,12.755\C,0,13.059,3.697,9.65\C,0,11.207,-0.399,11.39
 2\C,0,13.062,0.642,15.771\C,0,14.138,5.119,14.157\N,0,12.194,1.775,10.
 922\C,0,12.388,2.489,9.727\C,0,11.81,1.765,8.629\C,0,11.25,0.648,9.123
 \C,0,11.521,0.629,10.54\C,0,10.495,-0.467,8.356\C,0,11.841,2.227,7.162
 \C,0,13.046,1.656,6.392\C,0,13.086,2.124,4.978\O,0,14.201,2.26,4.429\O
 ,0,12.037,2.373,4.361\N,0,12.262,0.47,13.431\C,0,11.628,-0.511,12.721\
 C,0,11.497,-1.703,13.549\C,0,12.043,-1.418,14.765\C,0,12.495,-0.047,14
 .694\C,0,10.865,-3.035,13.109\C,0,12.161,-2.307,16.025\C,0,12.955,-3.5
 8,15.74\N,0,13.459,2.785,14.588\C,0,13.44,1.975,15.725\C,0,13.845,2.75
 3,16.875999\C,0,14.127,4.016,16.437\C,0,13.9,4.038,15.019\C,0,13.855,2
 .166,18.302\C,0,14.506,5.269,17.226999\C,0,15.76236037,5.26706782,18.1
 1759144\N,0,13.456,4.028,12.049\C,0,14.006,5.084,12.789\C,0,14.516,6.0
 93,11.899\C,0,14.383,5.614,10.626\C,0,13.61,4.395,10.712\C,0,15.14,7.4
 32,12.331\C,0,15.002,6.242,9.351\C,0,14.241,7.503,8.87\C,0,13.115,7.20
 9,7.901\O,0,12.172,8.037,7.738\O,0,13.146,6.139,7.238\H,0,12.36873263,
 8.95893122,7.55650871\H,0,12.07696195,2.7319584,3.4715328\H,0,13.94670
 405,1.95987592,6.88321445\H,0,12.98887598,0.58757197,6.40191928\H,0,11
 .88901547,3.29562232,7.13668486\H,0,10.94016655,1.909106,6.6799808\H,0
 ,13.8331058,8.00098863,9.72471027\H,0,14.93800244,8.15967596,8.3926486
 8\H,0,16.01706165,6.51027374,9.55734693\H,0,14.99028728,5.51314018,8.5
 6772089\H,0,13.1618523,4.1329459,8.67826311\H,0,16.08323104,7.56007446
 ,11.84231592\H,0,14.48597131,8.23425363,12.05982556\H,0,15.28460118,7.
 43254198,13.39118404\H,0,14.44649026,6.04332018,14.59900222\H,0,14.730
 9458,2.49882418,18.81857238\H,0,12.98367985,2.49451121,18.82904989\H,0
 ,13.85731283,1.09737582,18.2478057\H,0,13.89830518,6.14721401,17.16106
 599\H,0,16.55857529,5.77256829,17.61220933\H,0,15.54809593,5.76947565,
 19.03768769\H,0,16.05333561,4.25781702,18.32166554\H,0,13.21317257,0.1
 0795988,16.68579397\H,0,13.88672375,-3.54424957,16.26489309\H,0,12.394
 15423,-4.43076581,16.0664193\H,0,13.14043899,-3.65691348,14.68900205\H
 ,0,11.73919763,-2.06097406,16.97707878\H,0,11.51503653,-3.84274482,13.
 37338761\H,0,9.92194991,-3.16123136,13.59851217\H,0,10.71849322,-3.027
 35466,12.04910505\H,0,10.58728554,-1.18179612,11.00718288\H,0,11.08418
 822,-1.3601699,8.35381561\H,0,9.5582799,-0.65881147,8.83627472\H,0,10.
 32123406,-0.1518823,7.34832633\H,0,17.82690069,-0.58062057,10.40252886
 \H,0,16.31394392,-1.13826952,9.72943443\H,0,17.07042231,0.30580735,9.1
 0058698\H,0,17.65923464,1.91701376,11.58114588\H,0,15.95423003,3.03955
 825,13.06373217\H,0,14.13318142,-0.19673012,11.06734445\H,0,7.88145868
 ,4.04477169,15.80295109\H,0,6.98761083,3.98398187,14.30281534\H,0,7.43
 453476,2.50240916,15.11415249\H,0,10.25750645,1.90974449,14.9003291\H,
 0,8.67881284,5.03257559,12.74637215\H,0,10.95827742,4.56234659,11.7286
 6324\\Version=ES64L-G16RevA.03\State=1-A\HF=-3628.7931726\RMSD=2.957e-
 09\Dipole=-0.455673,2.2438607,-0.3412986\Quadrupole=11.2627629,17.8269
 985,-29.0897614,-5.2353505,6.1932626,-7.3080577\PG=C01 [X(C42H46Fe1N8O
 4)]\\@


 ANYONE WHO IS NOT SHOCKED BY QUANTUM THEORY HAS
 NOT UNDERSTOOD IT. -- NIELS BOHR(1885-1962)
 Job cpu time:       0 days  2 hours 58 minutes 34.5 seconds.
 Elapsed time:       0 days  0 hours 44 minutes 48.7 seconds.
 File lengths (MBytes):  RWF=   1341 Int=      0 D2E=      0 Chk=    260 Scr=      1
 Normal termination of Gaussian 16 at Sat Oct 22 09:42:38 2022.
