 Entering Gaussian System, Link 0=g16
 Input=/net/homes/chemie/zhartovska/work/BioModel/Konrad/1gu2/1gu212/1gu216/1gu216.com
 Output=/net/homes/chemie/zhartovska/work/BioModel/Konrad/1gu2/1gu212/1gu216/1gu216.log
 Initial command:
 /afs/math/software/gaussian/g16.A03/g16/l1.exe "/scratch/zhartovska_gaussian.vLH0Ghs/Gau-10284.inp" -scrdir="/scratch/zhartovska_gaussian.vLH0Ghs/"
 Entering Link 1 = /afs/math/software/gaussian/g16.A03/g16/l1.exe PID=     10285.
  
 Copyright (c) 1988,1990,1992,1993,1995,1998,2003,2009,2016,
            Gaussian, Inc.  All Rights Reserved.
  
 This is part of the Gaussian(R) 16 program.  It is based on
 the Gaussian(R) 09 system (copyright 2009, Gaussian, Inc.),
 the Gaussian(R) 03 system (copyright 2003, Gaussian, Inc.),
 the Gaussian(R) 98 system (copyright 1998, Gaussian, Inc.),
 the Gaussian(R) 94 system (copyright 1995, Gaussian, Inc.),
 the Gaussian 92(TM) system (copyright 1992, Gaussian, Inc.),
 the Gaussian 90(TM) system (copyright 1990, Gaussian, Inc.),
 the Gaussian 88(TM) system (copyright 1988, Gaussian, Inc.),
 the Gaussian 86(TM) system (copyright 1986, Carnegie Mellon
 University), and the Gaussian 82(TM) system (copyright 1983,
 Carnegie Mellon University). Gaussian is a federally registered
 trademark of Gaussian, Inc.
  
 This software contains proprietary and confidential information,
 including trade secrets, belonging to Gaussian, Inc.
  
 This software is provided under written license and may be
 used, copied, transmitted, or stored only in accord with that
 written license.
  
 The following legend is applicable only to US Government
 contracts under FAR:
  
                    RESTRICTED RIGHTS LEGEND
  
 Use, reproduction and disclosure by the US Government is
 subject to restrictions as set forth in subparagraphs (a)
 and (c) of the Commercial Computer Software - Restricted
 Rights clause in FAR 52.227-19.
  
 Gaussian, Inc.
 340 Quinnipiac St., Bldg. 40, Wallingford CT 06492
  
  
 ---------------------------------------------------------------
 Warning -- This program may not be used in any manner that
 competes with the business of Gaussian, Inc. or will provide
 assistance to any competitor of Gaussian, Inc.  The licensee
 of this program is prohibited from giving any competitor of
 Gaussian, Inc. access to this program.  By using this program,
 the user acknowledges that Gaussian, Inc. is engaged in the
 business of creating and licensing software in the field of
 computational chemistry and represents and warrants to the
 licensee that it is not a competitor of Gaussian, Inc. and that
 it will not use this program in any manner prohibited above.
 ---------------------------------------------------------------
  

 Cite this work as:
 Gaussian 16, Revision A.03,
 M. J. Frisch, G. W. Trucks, H. B. Schlegel, G. E. Scuseria, 
 M. A. Robb, J. R. Cheeseman, G. Scalmani, V. Barone, 
 G. A. Petersson, H. Nakatsuji, X. Li, M. Caricato, A. V. Marenich, 
 J. Bloino, B. G. Janesko, R. Gomperts, B. Mennucci, H. P. Hratchian, 
 J. V. Ortiz, A. F. Izmaylov, J. L. Sonnenberg, D. Williams-Young, 
 F. Ding, F. Lipparini, F. Egidi, J. Goings, B. Peng, A. Petrone, 
 T. Henderson, D. Ranasinghe, V. G. Zakrzewski, J. Gao, N. Rega, 
 G. Zheng, W. Liang, M. Hada, M. Ehara, K. Toyota, R. Fukuda, 
 J. Hasegawa, M. Ishida, T. Nakajima, Y. Honda, O. Kitao, H. Nakai, 
 T. Vreven, K. Throssell, J. A. Montgomery, Jr., J. E. Peralta, 
 F. Ogliaro, M. J. Bearpark, J. J. Heyd, E. N. Brothers, K. N. Kudin, 
 V. N. Staroverov, T. A. Keith, R. Kobayashi, J. Normand, 
 K. Raghavachari, A. P. Rendell, J. C. Burant, S. S. Iyengar, 
 J. Tomasi, M. Cossi, J. M. Millam, M. Klene, C. Adamo, R. Cammi, 
 J. W. Ochterski, R. L. Martin, K. Morokuma, O. Farkas, 
 J. B. Foresman, and D. J. Fox, Gaussian, Inc., Wallingford CT, 2016.
 
 ******************************************
 Gaussian 16:  ES64L-G16RevA.03 25-Dec-2016
                27-Dec-2022 
 ******************************************
 %nprocs=12
 Will use up to   12 processors via shared memory.
 %mem=16GB
 %oldchk=1gu2_III_Dn.chk
 %chk=1gu2_III_H.chk
 Copying data from "1gu2_III_Dn.chk" to current chk file "1gu2_III_H.chk"
 IOpt=  2 FromEx=T IUOpen= 4 IOptOp= 5 NList=   0 IFRang= 0 IUIn= 4 IUOut= 2.
 ----------------------------------------------------------------------
 # PBE1PBE/def2TZVP empiricaldispersion=GD3BJ int=(grid=ultrafine) geom
 =check pop=nbo
 ----------------------------------------------------------------------
 1/29=2,38=1,172=1/1;
 2/12=2,40=1/2;
 3/5=44,7=101,11=2,14=-4,25=1,30=1,74=-13,75=-5,124=41/1,2,3;
 4//1;
 5/5=2,38=5/2;
 6/7=2,8=2,9=2,10=2,28=1,40=1/1,7;
 99/5=1,9=1/99;
 ----------
 1gu2_III_H
 ----------
 Structure from the checkpoint file:  "1gu2_III_H.chk"
 Charge =  1 Multiplicity = 6
 Z-Matrix found in chk file.
 C,0,7.741,3.503,14.891
 C,0,9.027,3.472,14.126
 N,0,9.297,4.319,13.076
 C,0,10.117,2.702,14.195
 C,0,10.507,4.054,12.555
 N,0,11.039,3.068,13.231
 C,0,16.892,-0.274,9.982
 C,0,16.143999,0.552,10.979
 N,0,16.707001,1.622,11.66
 C,0,14.864,0.516,11.388
 C,0,15.795,2.193,12.429
 N,0,14.639,1.534,12.28
 Fe,0,12.834,2.272,12.755
 C,0,13.059,3.697,9.65
 C,0,11.207,-0.399,11.392
 C,0,13.062,0.642,15.771
 C,0,14.138,5.119,14.157
 N,0,12.194,1.775,10.922
 C,0,12.388,2.489,9.727
 C,0,11.81,1.765,8.629
 C,0,11.25,0.648,9.123
 C,0,11.521,0.629,10.54
 C,0,10.495,-0.467,8.356
 C,0,11.841,2.227,7.162
 C,0,13.046,1.656,6.392
 C,0,13.086,2.124,4.978
 O,0,14.201,2.26,4.429
 O,0,12.037,2.373,4.361
 N,0,12.262,0.47,13.431
 C,0,11.628,-0.511,12.721
 C,0,11.497,-1.703,13.549
 C,0,12.043,-1.418,14.765
 C,0,12.495,-0.047,14.694
 C,0,10.865,-3.035,13.109
 C,0,12.161,-2.307,16.025
 C,0,12.955,-3.58,15.74
 N,0,13.459,2.785,14.588
 C,0,13.44,1.975,15.725
 C,0,13.845,2.753,16.875999
 C,0,14.127,4.016,16.437
 C,0,13.9,4.038,15.019
 C,0,13.855,2.166,18.302
 C,0,14.506,5.269,17.226999
 C,0,15.76236037,5.26706782,18.11759144
 N,0,13.456,4.028,12.049
 C,0,14.006,5.084,12.789
 C,0,14.516,6.093,11.899
 C,0,14.383,5.614,10.626
 C,0,13.61,4.395,10.712
 C,0,15.14,7.432,12.331
 C,0,15.002,6.242,9.351
 C,0,14.241,7.503,8.87
 C,0,13.115,7.209,7.901
 O,0,12.172,8.037,7.738
 O,0,13.146,6.139,7.238
 H,0,12.36873263,8.95893122,7.55650871
 H,0,12.07696195,2.7319584,3.4715328
 H,0,13.94670405,1.95987592,6.88321445
 H,0,12.98887598,0.58757197,6.40191928
 H,0,11.88901547,3.29562232,7.13668486
 H,0,10.94016655,1.909106,6.6799808
 H,0,13.8331058,8.00098863,9.72471027
 H,0,14.93800244,8.15967596,8.39264868
 H,0,16.01706165,6.51027374,9.55734693
 H,0,14.99028728,5.51314018,8.56772089
 H,0,13.1618523,4.1329459,8.67826311
 H,0,16.08323104,7.56007446,11.84231592
 H,0,14.48597131,8.23425363,12.05982556
 H,0,15.28460118,7.43254198,13.39118404
 H,0,14.44649026,6.04332018,14.59900222
 H,0,14.7309458,2.49882418,18.81857238
 H,0,12.98367985,2.49451121,18.82904989
 H,0,13.85731283,1.09737582,18.2478057
 H,0,13.89830518,6.14721401,17.16106599
 H,0,16.55857529,5.77256829,17.61220933
 H,0,15.54809593,5.76947565,19.03768769
 H,0,16.05333561,4.25781702,18.32166554
 H,0,13.21317257,0.10795988,16.68579397
 H,0,13.88672375,-3.54424957,16.26489309
 H,0,12.39415423,-4.43076581,16.0664193
 H,0,13.14043899,-3.65691348,14.68900205
 H,0,11.73919763,-2.06097406,16.97707878
 H,0,11.51503653,-3.84274482,13.37338761
 H,0,9.92194991,-3.16123136,13.59851217
 H,0,10.71849322,-3.02735466,12.04910505
 H,0,10.58728554,-1.18179612,11.00718288
 H,0,11.08418822,-1.3601699,8.35381561
 H,0,9.5582799,-0.65881147,8.83627472
 H,0,10.32123406,-0.1518823,7.34832633
 H,0,17.82690069,-0.58062057,10.40252886
 H,0,16.31394392,-1.13826952,9.72943443
 H,0,17.07042231,0.30580735,9.10058698
 H,0,17.65923464,1.91701376,11.58114588
 H,0,15.95423003,3.03955825,13.06373217
 H,0,14.13318142,-0.19673012,11.06734445
 H,0,7.88145868,4.04477169,15.80295109
 H,0,6.98761083,3.98398187,14.30281534
 H,0,7.43453476,2.50240916,15.11415249
 H,0,10.25750645,1.90974449,14.9003291
 H,0,8.67881284,5.03257559,12.74637215
 H,0,10.95827742,4.56234659,11.72866324
 Recover connectivity data from disk.
 Stoichiometry    C42H46FeN8O4(1+,6)
 Framework group  C1[X(C42H46FeN8O4)]
 Deg. of freedom   297
 Full point group                 C1      NOp   1
 Largest Abelian subgroup         C1      NOp   1
 Largest concise Abelian subgroup C1      NOp   1
                         Standard orientation:                         
 ---------------------------------------------------------------------
 Center     Atomic      Atomic             Coordinates (Angstroms)
 Number     Number       Type             X           Y           Z
 ---------------------------------------------------------------------
      1          6           0        2.704838    0.332952    5.429888
      2          6           0        1.943968    0.427499    4.144540
      3          7           0        0.679164    0.961893    4.057920
      4          6           0        2.207117    0.042068    2.892359
      5          6           0        0.223858    0.894646    2.795407
      6          7           0        1.148496    0.340614    2.053592
      7          6           0       -1.126458   -2.086096   -4.648514
      8          6           0       -0.401806   -1.237368   -3.653360
      9          7           0       -0.094027    0.098372   -3.869468
     10          6           0        0.039895   -1.497936   -2.410791
     11          6           0        0.495629    0.600977   -2.797628
     12          7           0        0.589738   -0.362080   -1.872165
     13         26           0        0.877555   -0.038764    0.087662
     14          6           0       -2.518303    0.397594    0.091212
     15          6           0        0.437434   -3.332987    0.858068
     16          6           0        4.235937   -0.565323   -0.411482
     17          6           0        1.312088    3.339739   -0.322616
     18          7           0       -0.698353   -1.215969    0.471330
     19          6           0       -2.058724   -0.867290    0.414153
     20          6           0       -2.867787   -2.015415    0.715964
     21          6           0       -2.041923   -3.042121    0.978924
     22          6           0       -0.694765   -2.561899    0.788550
     23          6           0       -2.411889   -4.497193    1.362892
     24          6           0       -4.406015   -2.022993    0.732984
     25          6           0       -5.006041   -2.445804   -0.620591
     26          6           0       -6.495871   -2.429596   -0.607788
     27          8           0       -7.095849   -2.164545   -1.672164
     28          8           0       -7.125207   -2.673094    0.435158
     29          7           0        2.083992   -1.640650    0.186837
     30          6           0        1.723997   -2.923093    0.493696
     31          6           0        2.876953   -3.801275    0.341717
     32          6           0        3.931993   -3.028008   -0.041617
     33          6           0        3.435965   -1.672165   -0.109678
     34          6           0        2.880107   -5.323393    0.566207
     35          6           0        5.397096   -3.431975   -0.328196
     36          6           0        5.484299   -4.464017   -1.450459
     37          7           0        2.449115    1.148970   -0.277264
     38          6           0        3.777579    0.743020   -0.417335
     39          6           0        4.626398    1.909068   -0.535429
     40          6           0        3.817802    3.009708   -0.488775
     41          6           0        2.467372    2.543957   -0.339944
     42          6           0        6.161978    1.801312   -0.627801
     43          6           0        4.180108    4.495045   -0.472775
     44          6           0        4.988882    5.102893   -1.633812
     45          7           0       -0.345187    1.525766   -0.073598
     46          6           0        0.023452    2.862786   -0.277852
     47          6           0       -1.145517    3.658723   -0.542951
     48          6           0       -2.209579    2.803940   -0.612085
     49          6           0       -1.734826    1.503807   -0.193576
     50          6           0       -1.158150    5.182662   -0.758284
     51          6           0       -3.633873    3.166254   -1.105323
     52          6           0       -4.448366    3.967403   -0.058726
     53          6           0       -5.246706    3.101184    0.892900
     54          8           0       -5.621650    3.551733    2.014427
     55          8           0       -5.556423    1.933197    0.538905
     56          1           0       -6.079195    4.394189    2.064628
     57          1           0       -8.082340   -2.599820    0.446420
     58          1           0       -4.658681   -1.774943   -1.378342
     59          1           0       -4.672236   -3.435320   -0.853687
     60          1           0       -4.754255   -1.040391    0.974071
     61          1           0       -4.740378   -2.703958    1.487562
     62          1           0       -3.771205    4.566671    0.513314
     63          1           0       -5.123816    4.615660   -0.576828
     64          1           0       -3.550866    3.750683   -1.997765
     65          1           0       -4.159798    2.262548   -1.332517
     66          1           0       -3.579085    0.533861    0.058433
     67          1           0       -1.692746    5.411540   -1.656461
     68          1           0       -1.637678    5.656333    0.072732
     69          1           0       -0.152806    5.539555   -0.840824
     70          1           0        1.444302    4.401280   -0.346084
     71          1           0        6.525556    2.499452   -1.352584
     72          1           0        6.592993    2.021015    0.326587
     73          1           0        6.432843    0.808702   -0.921498
     74          1           0        3.871717    5.112174    0.345116
     75          1           0        4.329170    5.631673   -2.289611
     76          1           0        5.720787    5.778674   -1.243255
     77          1           0        5.478629    4.320667   -2.175265
     78          1           0        5.263910   -0.738858   -0.652433
     79          1           0        5.943688   -4.019758   -2.308652
     80          1           0        6.070151   -5.297623   -1.123691
     81          1           0        4.500155   -4.797772   -1.705350
     82          1           0        6.243536   -3.037776    0.194343
     83          1           0        3.354955   -5.805204   -0.262815
     84          1           0        3.414930   -5.550289    1.464752
     85          1           0        1.872629   -5.673234    0.652805
     86          1           0        0.326988   -4.333116    1.221998
     87          1           0       -2.163291   -5.153414    0.555135
     88          1           0       -1.866275   -4.785079    2.237150
     89          1           0       -3.461548   -4.557755    1.561507
     90          1           0       -0.663262   -1.985191   -5.607768
     91          1           0       -1.087638   -3.109800   -4.339610
     92          1           0       -2.147033   -1.770642   -4.710294
     93          1           0       -0.288815    0.604834   -4.709441
     94          1           0        0.839748    1.608222   -2.688361
     95          1           0       -0.026996   -2.445197   -1.917717
     96          1           0        3.405700    1.139255    5.489620
     97          1           0        2.023431    0.390973    6.252821
     98          1           0        3.229349   -0.598967    5.466152
     99          1           0        3.113797   -0.433074    2.580798
    100          1           0        0.169557    1.346811    4.827425
    101          1           0       -0.731437    1.235811    2.454938
 ---------------------------------------------------------------------
 Rotational constants (GHZ):           0.0640035           0.0431224           0.0346215
 Standard basis: def2TZVP (5D, 7F)
 There are  2272 symmetry adapted cartesian basis functions of A   symmetry.
 There are  1995 symmetry adapted basis functions of A   symmetry.
  1995 basis functions,  3224 primitive gaussians,  2272 cartesian basis functions
   208 alpha electrons      203 beta electrons
       nuclear repulsion energy      8998.7561913902 Hartrees.
 NAtoms=  101 NActive=  101 NUniq=  101 SFac= 1.00D+00 NAtFMM=   60 NAOKFM=T Big=T
 Integral buffers will be    131072 words long.
 Raffenetti 2 integral format.
 Two-electron integral symmetry is turned on.
 Nuclear repulsion after empirical dispersion term =     8998.6110805693 Hartrees.
 One-electron integrals computed using PRISM.
   1 Symmetry operations used in ECPInt.
 ECPInt:  NShTT=  314821 NPrTT=  970913 LenC2=  229571 LenP2D=  456403.
 LDataN:  DoStor=T MaxTD1= 6 Len=  172
 NBasis=  1995 RedAO= T EigKep=  3.29D-06  NBF=  1995
 NBsUse=  1995 1.00D-06 EigRej= -1.00D+00 NBFU=  1995
 ExpMin= 4.20D-02 ExpMax= 3.01D+05 ExpMxC= 2.91D+03 IAcc=3 IRadAn=         5 AccDes= 0.00D+00
 Harris functional with IExCor= 1009 and IRadAn=       5 diagonalized for initial guess.
 HarFok:  IExCor= 1009 AccDes= 0.00D+00 IRadAn=         5 IDoV= 1 UseB2=F ITyADJ=14
 ICtDFT=  3500011 ScaDFX=  1.000000  1.000000  1.000000  1.000000
 FoFCou: FMM=F IPFlag=           0 FMFlag=      100000 FMFlg1=        2001
         NFxFlg=           0 DoJE=T BraDBF=F KetDBF=T FulRan=T
         wScrn=  0.000000 ICntrl=       500 IOpCl=  0 I1Cent=   200000004 NGrid=           0
         NMat0=    1 NMatS0=      1 NMatT0=    0 NMatD0=    1 NMtDS0=    0 NMtDT0=    0
 Petite list used in FoFCou.
 Initial guess <Sx>= 0.0000 <Sy>= 0.0000 <Sz>= 2.5000 <S**2>= 8.7500 S= 2.5000
 Requested convergence on RMS density matrix=1.00D-08 within 128 cycles.
 Requested convergence on MAX density matrix=1.00D-06.
 Requested convergence on             energy=1.00D-06.
 No special actions if energy rises.
 EnCoef did   100 forward-backward iterations
 EnCoef did   100 forward-backward iterations
 EnCoef did     4 forward-backward iterations
 EnCoef did     4 forward-backward iterations
 EnCoef did    11 forward-backward iterations
 EnCoef did    11 forward-backward iterations
 EnCoef did     8 forward-backward iterations
 EnCoef did     3 forward-backward iterations
 Restarting incremental Fock formation.
 Restarting incremental Fock formation.
 SCF Done:  E(UPBE1PBE) =  -3628.67401324     A.U. after   54 cycles
            NFock= 54  Conv=0.18D-08     -V/T= 2.0035
 <Sx>= 0.0000 <Sy>= 0.0000 <Sz>= 2.5000 <S**2>= 8.8188 S= 2.5115
 <L.S>= 0.000000000000E+00
 Annihilation of the first spin contaminant:
 S**2 before annihilation     8.8188,   after     8.7512
 Hyperfine terms turned off by default for NAtoms > 100.

 **********************************************************************

            Population analysis using the SCF density.

 **********************************************************************

 Orbital symmetries:
 Alpha Orbitals:
       Occupied  (A) (A) (A) (A) (A) (A) (A) (A) (A) (A) (A) (A)
                 (A) (A) (A) (A) (A) (A) (A) (A) (A) (A) (A) (A)
                 (A) (A) (A) (A) (A) (A) (A) (A) (A) (A) (A) (A)
                 (A) (A) (A) (A) (A) (A) (A) (A) (A) (A) (A) (A)
                 (A) (A) (A) (A) (A) (A) (A) (A) (A) (A) (A) (A)
                 (A) (A) (A) (A) (A) (A) (A) (A) (A) (A) (A) (A)
                 (A) (A) (A) (A) (A) (A) (A) (A) (A) (A) (A) (A)
                 (A) (A) (A) (A) (A) (A) (A) (A) (A) (A) (A) (A)
                 (A) (A) (A) (A) (A) (A) (A) (A) (A) (A) (A) (A)
                 (A) (A) (A) (A) (A) (A) (A) (A) (A) (A) (A) (A)
                 (A) (A) (A) (A) (A) (A) (A) (A) (A) (A) (A) (A)
                 (A) (A) (A) (A) (A) (A) (A) (A) (A) (A) (A) (A)
                 (A) (A) (A) (A) (A) (A) (A) (A) (A) (A) (A) (A)
                 (A) (A) (A) (A) (A) (A) (A) (A) (A) (A) (A) (A)
                 (A) (A) (A) (A) (A) (A) (A) (A) (A) (A) (A) (A)
                 (A) (A) (A) (A) (A) (A) (A) (A) (A) (A) (A) (A)
                 (A) (A) (A) (A) (A) (A) (A) (A) (A) (A) (A) (A)
                 (A) (A) (A) (A)
       Virtual   (A) (A) (A) (A) (A) (A) (A) (A) (A) (A) (A) (A)
                 (A) (A) (A) (A) (A) (A) (A) (A) (A) (A) (A) (A)
                 (A) (A) (A) (A) (A) (A) (A) (A) (A) (A) (A) (A)
                 (A) (A) (A) (A) (A) (A) (A) (A) (A) (A) (A) (A)
                 (A) (A) (A) (A) (A) (A) (A) (A) (A) (A) (A) (A)
                 (A) (A) (A) (A) (A) (A) (A) (A) (A) (A) (A) (A)
                 (A) (A) (A) (A) (A) (A) (A) (A) (A) (A) (A) (A)
                 (A) (A) (A) (A) (A) (A) (A) (A) (A) (A) (A) (A)
                 (A) (A) (A) (A) (A) (A) (A) (A) (A) (A) (A) (A)
                 (A) (A) (A) (A) (A) (A) (A) (A) (A) (A) (A) (A)
                 (A) (A) (A) (A) (A) (A) (A) (A) (A) (A) (A) (A)
                 (A) (A) (A) (A) (A) (A) (A) (A) (A) (A) (A) (A)
                 (A) (A) (A) (A) (A) (A) (A) (A) (A) (A) (A) (A)
                 (A) (A) (A) (A) (A) (A) (A) (A) (A) (A) (A) (A)
                 (A) (A) (A) (A) (A) (A) (A) (A) (A) (A) (A) (A)
                 (A) (A) (A) (A) (A) (A) (A) (A) (A) (A) (A) (A)
                 (A) (A) (A) (A) (A) (A) (A) (A) (A) (A) (A) (A)
                 (A) (A) (A) (A) (A) (A) (A) (A) (A) (A) (A) (A)
                 (A) (A) (A) (A) (A) (A) (A) (A) (A) (A) (A) (A)
                 (A) (A) (A) (A) (A) (A) (A) (A) (A) (A) (A) (A)
                 (A) (A) (A) (A) (A) (A) (A) (A) (A) (A) (A) (A)
                 (A) (A) (A) (A) (A) (A) (A) (A) (A) (A) (A) (A)
                 (A) (A) (A) (A) (A) (A) (A) (A) (A) (A) (A) (A)
                 (A) (A) (A) (A) (A) (A) (A) (A) (A) (A) (A) (A)
                 (A) (A) (A) (A) (A) (A) (A) (A) (A) (A) (A) (A)
                 (A) (A) (A) (A) (A) (A) (A) (A) (A) (A) (A) (A)
                 (A) (A) (A) (A) (A) (A) (A) (A) (A) (A) (A) (A)
                 (A) (A) (A) (A) (A) (A) (A) (A) (A) (A) (A) (A)
                 (A) (A) (A) (A) (A) (A) (A) (A) (A) (A) (A) (A)
                 (A) (A) (A) (A) (A) (A) (A) (A) (A) (A) (A) (A)
                 (A) (A) (A) (A) (A) (A) (A) (A) (A) (A) (A) (A)
                 (A) (A) (A) (A) (A) (A) (A) (A) (A) (A) (A) (A)
                 (A) (A) (A) (A) (A) (A) (A) (A) (A) (A) (A) (A)
                 (A) (A) (A) (A) (A) (A) (A) (A) (A) (A) (A) (A)
                 (A) (A) (A) (A) (A) (A) (A) (A) (A) (A) (A) (A)
                 (A) (A) (A) (A) (A) (A) (A) (A) (A) (A) (A) (A)
                 (A) (A) (A) (A) (A) (A) (A) (A) (A) (A) (A) (A)
                 (A) (A) (A) (A) (A) (A) (A) (A) (A) (A) (A) (A)
                 (A) (A) (A) (A) (A) (A) (A) (A) (A) (A) (A) (A)
                 (A) (A) (A) (A) (A) (A) (A) (A) (A) (A) (A) (A)
                 (A) (A) (A) (A) (A) (A) (A) (A) (A) (A) (A) (A)
                 (A) (A) (A) (A) (A) (A) (A) (A) (A) (A) (A) (A)
                 (A) (A) (A) (A) (A) (A) (A) (A) (A) (A) (A) (A)
                 (A) (A) (A) (A) (A) (A) (A) (A) (A) (A) (A) (A)
                 (A) (A) (A) (A) (A) (A) (A) (A) (A) (A) (A) (A)
                 (A) (A) (A) (A) (A) (A) (A) (A) (A) (A) (A) (A)
                 (A) (A) (A) (A) (A) (A) (A) (A) (A) (A) (A) (A)
                 (A) (A) (A) (A) (A) (A) (A) (A) (A) (A) (A) (A)
                 (A) (A) (A) (A) (A) (A) (A) (A) (A) (A) (A) (A)
                 (A) (A) (A) (A) (A) (A) (A) (A) (A) (A) (A) (A)
                 (A) (A) (A) (A) (A) (A) (A) (A) (A) (A) (A) (A)
                 (A) (A) (A) (A) (A) (A) (A) (A) (A) (A) (A) (A)
                 (A) (A) (A) (A) (A) (A) (A) (A) (A) (A) (A) (A)
                 (A) (A) (A) (A) (A) (A) (A) (A) (A) (A) (A) (A)
                 (A) (A) (A) (A) (A) (A) (A) (A) (A) (A) (A) (A)
                 (A) (A) (A) (A) (A) (A) (A) (A) (A) (A) (A) (A)
                 (A) (A) (A) (A) (A) (A) (A) (A) (A) (A) (A) (A)
                 (A) (A) (A) (A) (A) (A) (A) (A) (A) (A) (A) (A)
                 (A) (A) (A) (A) (A) (A) (A) (A) (A) (A) (A) (A)
                 (A) (A) (A) (A) (A) (A) (A) (A) (A) (A) (A) (A)
                 (A) (A) (A) (A) (A) (A) (A) (A) (A) (A) (A) (A)
                 (A) (A) (A) (A) (A) (A) (A) (A) (A) (A) (A) (A)
                 (A) (A) (A) (A) (A) (A) (A) (A) (A) (A) (A) (A)
                 (A) (A) (A) (A) (A) (A) (A) (A) (A) (A) (A) (A)
                 (A) (A) (A) (A) (A) (A) (A) (A) (A) (A) (A) (A)
                 (A) (A) (A) (A) (A) (A) (A) (A) (A) (A) (A) (A)
                 (A) (A) (A) (A) (A) (A) (A) (A) (A) (A) (A) (A)
                 (A) (A) (A) (A) (A) (A) (A) (A) (A) (A) (A) (A)
                 (A) (A) (A) (A) (A) (A) (A) (A) (A) (A) (A) (A)
                 (A) (A) (A) (A) (A) (A) (A) (A) (A) (A) (A) (A)
                 (A) (A) (A) (A) (A) (A) (A) (A) (A) (A) (A) (A)
                 (A) (A) (A) (A) (A) (A) (A) (A) (A) (A) (A) (A)
                 (A) (A) (A) (A) (A) (A) (A) (A) (A) (A) (A) (A)
                 (A) (A) (A) (A) (A) (A) (A) (A) (A) (A) (A) (A)
                 (A) (A) (A) (A) (A) (A) (A) (A) (A) (A) (A) (A)
                 (A) (A) (A) (A) (A) (A) (A) (A) (A) (A) (A) (A)
                 (A) (A) (A) (A) (A) (A) (A) (A) (A) (A) (A) (A)
                 (A) (A) (A) (A) (A) (A) (A) (A) (A) (A) (A) (A)
                 (A) (A) (A) (A) (A) (A) (A) (A) (A) (A) (A) (A)
                 (A) (A) (A) (A) (A) (A) (A) (A) (A) (A) (A) (A)
                 (A) (A) (A) (A) (A) (A) (A) (A) (A) (A) (A) (A)
                 (A) (A) (A) (A) (A) (A) (A) (A) (A) (A) (A) (A)
                 (A) (A) (A) (A) (A) (A) (A) (A) (A) (A) (A) (A)
                 (A) (A) (A) (A) (A) (A) (A) (A) (A) (A) (A) (A)
                 (A) (A) (A) (A) (A) (A) (A) (A) (A) (A) (A) (A)
                 (A) (A) (A) (A) (A) (A) (A) (A) (A) (A) (A) (A)
                 (A) (A) (A) (A) (A) (A) (A) (A) (A) (A) (A) (A)
                 (A) (A) (A) (A) (A) (A) (A) (A) (A) (A) (A) (A)
                 (A) (A) (A) (A) (A) (A) (A) (A) (A) (A) (A) (A)
                 (A) (A) (A) (A) (A) (A) (A) (A) (A) (A) (A) (A)
                 (A) (A) (A) (A) (A) (A) (A) (A) (A) (A) (A) (A)
                 (A) (A) (A) (A) (A) (A) (A) (A) (A) (A) (A) (A)
                 (A) (A) (A) (A) (A) (A) (A) (A) (A) (A) (A) (A)
                 (A) (A) (A) (A) (A) (A) (A) (A) (A) (A) (A) (A)
                 (A) (A) (A) (A) (A) (A) (A) (A) (A) (A) (A) (A)
                 (A) (A) (A) (A) (A) (A) (A) (A) (A) (A) (A) (A)
                 (A) (A) (A) (A) (A) (A) (A) (A) (A) (A) (A) (A)
                 (A) (A) (A) (A) (A) (A) (A) (A) (A) (A) (A) (A)
                 (A) (A) (A) (A) (A) (A) (A) (A) (A) (A) (A) (A)
                 (A) (A) (A) (A) (A) (A) (A) (A) (A) (A) (A) (A)
                 (A) (A) (A) (A) (A) (A) (A) (A) (A) (A) (A) (A)
                 (A) (A) (A) (A) (A) (A) (A) (A) (A) (A) (A) (A)
                 (A) (A) (A) (A) (A) (A) (A) (A) (A) (A) (A) (A)
                 (A) (A) (A) (A) (A) (A) (A) (A) (A) (A) (A) (A)
                 (A) (A) (A) (A) (A) (A) (A) (A) (A) (A) (A) (A)
                 (A) (A) (A) (A) (A) (A) (A) (A) (A) (A) (A) (A)
                 (A) (A) (A) (A) (A) (A) (A) (A) (A) (A) (A) (A)
                 (A) (A) (A) (A) (A) (A) (A) (A) (A) (A) (A) (A)
                 (A) (A) (A) (A) (A) (A) (A) (A) (A) (A) (A) (A)
                 (A) (A) (A) (A) (A) (A) (A) (A) (A) (A) (A) (A)
                 (A) (A) (A) (A) (A) (A) (A) (A) (A) (A) (A) (A)
                 (A) (A) (A) (A) (A) (A) (A) (A) (A) (A) (A) (A)
                 (A) (A) (A) (A) (A) (A) (A) (A) (A) (A) (A) (A)
                 (A) (A) (A) (A) (A) (A) (A) (A) (A) (A) (A) (A)
                 (A) (A) (A) (A) (A) (A) (A) (A) (A) (A) (A) (A)
                 (A) (A) (A) (A) (A) (A) (A) (A) (A) (A) (A) (A)
                 (A) (A) (A) (A) (A) (A) (A) (A) (A) (A) (A) (A)
                 (A) (A) (A) (A) (A) (A) (A) (A) (A) (A) (A) (A)
                 (A) (A) (A) (A) (A) (A) (A) (A) (A) (A) (A) (A)
                 (A) (A) (A) (A) (A) (A) (A) (A) (A) (A) (A) (A)
                 (A) (A) (A) (A) (A) (A) (A) (A) (A) (A) (A) (A)
                 (A) (A) (A) (A) (A) (A) (A) (A) (A) (A) (A) (A)
                 (A) (A) (A) (A) (A) (A) (A) (A) (A) (A) (A) (A)
                 (A) (A) (A) (A) (A) (A) (A) (A) (A) (A) (A) (A)
                 (A) (A) (A) (A) (A) (A) (A) (A) (A) (A) (A) (A)
                 (A) (A) (A) (A) (A) (A) (A) (A) (A) (A) (A) (A)
                 (A) (A) (A) (A) (A) (A) (A) (A) (A) (A) (A) (A)
                 (A) (A) (A) (A) (A) (A) (A) (A) (A) (A) (A) (A)
                 (A) (A) (A) (A) (A) (A) (A) (A) (A) (A) (A) (A)
                 (A) (A) (A) (A) (A) (A) (A) (A) (A) (A) (A) (A)
                 (A) (A) (A) (A) (A) (A) (A) (A) (A) (A) (A) (A)
                 (A) (A) (A) (A) (A) (A) (A) (A) (A) (A) (A) (A)
                 (A) (A) (A) (A) (A) (A) (A) (A) (A) (A) (A) (A)
                 (A) (A) (A) (A) (A) (A) (A) (A) (A) (A) (A) (A)
                 (A) (A) (A) (A) (A) (A) (A) (A) (A) (A) (A) (A)
                 (A) (A) (A) (A) (A) (A) (A) (A) (A) (A) (A) (A)
                 (A) (A) (A) (A) (A) (A) (A) (A) (A) (A) (A) (A)
                 (A) (A) (A) (A) (A) (A) (A) (A) (A) (A) (A) (A)
                 (A) (A) (A) (A) (A) (A) (A) (A) (A) (A) (A) (A)
                 (A) (A) (A) (A) (A) (A) (A) (A) (A) (A) (A) (A)
                 (A) (A) (A) (A) (A) (A) (A) (A) (A) (A) (A) (A)
                 (A) (A) (A) (A) (A) (A) (A) (A) (A) (A) (A) (A)
                 (A) (A) (A) (A) (A) (A) (A) (A) (A) (A) (A) (A)
                 (A) (A) (A) (A) (A) (A) (A) (A) (A) (A) (A) (A)
                 (A) (A) (A) (A) (A) (A) (A) (A) (A) (A) (A) (A)
                 (A) (A) (A) (A) (A) (A) (A) (A) (A) (A) (A) (A)
                 (A) (A) (A) (A) (A) (A) (A) (A) (A) (A) (A) (A)
                 (A) (A) (A) (A) (A) (A) (A) (A) (A) (A) (A) (A)
                 (A) (A) (A) (A) (A) (A) (A) (A) (A) (A) (A)
 Beta  Orbitals:
       Occupied  (A) (A) (A) (A) (A) (A) (A) (A) (A) (A) (A) (A)
                 (A) (A) (A) (A) (A) (A) (A) (A) (A) (A) (A) (A)
                 (A) (A) (A) (A) (A) (A) (A) (A) (A) (A) (A) (A)
                 (A) (A) (A) (A) (A) (A) (A) (A) (A) (A) (A) (A)
                 (A) (A) (A) (A) (A) (A) (A) (A) (A) (A) (A) (A)
                 (A) (A) (A) (A) (A) (A) (A) (A) (A) (A) (A) (A)
                 (A) (A) (A) (A) (A) (A) (A) (A) (A) (A) (A) (A)
                 (A) (A) (A) (A) (A) (A) (A) (A) (A) (A) (A) (A)
                 (A) (A) (A) (A) (A) (A) (A) (A) (A) (A) (A) (A)
                 (A) (A) (A) (A) (A) (A) (A) (A) (A) (A) (A) (A)
                 (A) (A) (A) (A) (A) (A) (A) (A) (A) (A) (A) (A)
                 (A) (A) (A) (A) (A) (A) (A) (A) (A) (A) (A) (A)
                 (A) (A) (A) (A) (A) (A) (A) (A) (A) (A) (A) (A)
                 (A) (A) (A) (A) (A) (A) (A) (A) (A) (A) (A) (A)
                 (A) (A) (A) (A) (A) (A) (A) (A) (A) (A) (A) (A)
                 (A) (A) (A) (A) (A) (A) (A) (A) (A) (A) (A) (A)
                 (A) (A) (A) (A) (A) (A) (A) (A) (A) (A) (A)
       Virtual   (A) (A) (A) (A) (A) (A) (A) (A) (A) (A) (A) (A)
                 (A) (A) (A) (A) (A) (A) (A) (A) (A) (A) (A) (A)
                 (A) (A) (A) (A) (A) (A) (A) (A) (A) (A) (A) (A)
                 (A) (A) (A) (A) (A) (A) (A) (A) (A) (A) (A) (A)
                 (A) (A) (A) (A) (A) (A) (A) (A) (A) (A) (A) (A)
                 (A) (A) (A) (A) (A) (A) (A) (A) (A) (A) (A) (A)
                 (A) (A) (A) (A) (A) (A) (A) (A) (A) (A) (A) (A)
                 (A) (A) (A) (A) (A) (A) (A) (A) (A) (A) (A) (A)
                 (A) (A) (A) (A) (A) (A) (A) (A) (A) (A) (A) (A)
                 (A) (A) (A) (A) (A) (A) (A) (A) (A) (A) (A) (A)
                 (A) (A) (A) (A) (A) (A) (A) (A) (A) (A) (A) (A)
                 (A) (A) (A) (A) (A) (A) (A) (A) (A) (A) (A) (A)
                 (A) (A) (A) (A) (A) (A) (A) (A) (A) (A) (A) (A)
                 (A) (A) (A) (A) (A) (A) (A) (A) (A) (A) (A) (A)
                 (A) (A) (A) (A) (A) (A) (A) (A) (A) (A) (A) (A)
                 (A) (A) (A) (A) (A) (A) (A) (A) (A) (A) (A) (A)
                 (A) (A) (A) (A) (A) (A) (A) (A) (A) (A) (A) (A)
                 (A) (A) (A) (A) (A) (A) (A) (A) (A) (A) (A) (A)
                 (A) (A) (A) (A) (A) (A) (A) (A) (A) (A) (A) (A)
                 (A) (A) (A) (A) (A) (A) (A) (A) (A) (A) (A) (A)
                 (A) (A) (A) (A) (A) (A) (A) (A) (A) (A) (A) (A)
                 (A) (A) (A) (A) (A) (A) (A) (A) (A) (A) (A) (A)
                 (A) (A) (A) (A) (A) (A) (A) (A) (A) (A) (A) (A)
                 (A) (A) (A) (A) (A) (A) (A) (A) (A) (A) (A) (A)
                 (A) (A) (A) (A) (A) (A) (A) (A) (A) (A) (A) (A)
                 (A) (A) (A) (A) (A) (A) (A) (A) (A) (A) (A) (A)
                 (A) (A) (A) (A) (A) (A) (A) (A) (A) (A) (A) (A)
                 (A) (A) (A) (A) (A) (A) (A) (A) (A) (A) (A) (A)
                 (A) (A) (A) (A) (A) (A) (A) (A) (A) (A) (A) (A)
                 (A) (A) (A) (A) (A) (A) (A) (A) (A) (A) (A) (A)
                 (A) (A) (A) (A) (A) (A) (A) (A) (A) (A) (A) (A)
                 (A) (A) (A) (A) (A) (A) (A) (A) (A) (A) (A) (A)
                 (A) (A) (A) (A) (A) (A) (A) (A) (A) (A) (A) (A)
                 (A) (A) (A) (A) (A) (A) (A) (A) (A) (A) (A) (A)
                 (A) (A) (A) (A) (A) (A) (A) (A) (A) (A) (A) (A)
                 (A) (A) (A) (A) (A) (A) (A) (A) (A) (A) (A) (A)
                 (A) (A) (A) (A) (A) (A) (A) (A) (A) (A) (A) (A)
                 (A) (A) (A) (A) (A) (A) (A) (A) (A) (A) (A) (A)
                 (A) (A) (A) (A) (A) (A) (A) (A) (A) (A) (A) (A)
                 (A) (A) (A) (A) (A) (A) (A) (A) (A) (A) (A) (A)
                 (A) (A) (A) (A) (A) (A) (A) (A) (A) (A) (A) (A)
                 (A) (A) (A) (A) (A) (A) (A) (A) (A) (A) (A) (A)
                 (A) (A) (A) (A) (A) (A) (A) (A) (A) (A) (A) (A)
                 (A) (A) (A) (A) (A) (A) (A) (A) (A) (A) (A) (A)
                 (A) (A) (A) (A) (A) (A) (A) (A) (A) (A) (A) (A)
                 (A) (A) (A) (A) (A) (A) (A) (A) (A) (A) (A) (A)
                 (A) (A) (A) (A) (A) (A) (A) (A) (A) (A) (A) (A)
                 (A) (A) (A) (A) (A) (A) (A) (A) (A) (A) (A) (A)
                 (A) (A) (A) (A) (A) (A) (A) (A) (A) (A) (A) (A)
                 (A) (A) (A) (A) (A) (A) (A) (A) (A) (A) (A) (A)
                 (A) (A) (A) (A) (A) (A) (A) (A) (A) (A) (A) (A)
                 (A) (A) (A) (A) (A) (A) (A) (A) (A) (A) (A) (A)
                 (A) (A) (A) (A) (A) (A) (A) (A) (A) (A) (A) (A)
                 (A) (A) (A) (A) (A) (A) (A) (A) (A) (A) (A) (A)
                 (A) (A) (A) (A) (A) (A) (A) (A) (A) (A) (A) (A)
                 (A) (A) (A) (A) (A) (A) (A) (A) (A) (A) (A) (A)
                 (A) (A) (A) (A) (A) (A) (A) (A) (A) (A) (A) (A)
                 (A) (A) (A) (A) (A) (A) (A) (A) (A) (A) (A) (A)
                 (A) (A) (A) (A) (A) (A) (A) (A) (A) (A) (A) (A)
                 (A) (A) (A) (A) (A) (A) (A) (A) (A) (A) (A) (A)
                 (A) (A) (A) (A) (A) (A) (A) (A) (A) (A) (A) (A)
                 (A) (A) (A) (A) (A) (A) (A) (A) (A) (A) (A) (A)
                 (A) (A) (A) (A) (A) (A) (A) (A) (A) (A) (A) (A)
                 (A) (A) (A) (A) (A) (A) (A) (A) (A) (A) (A) (A)
                 (A) (A) (A) (A) (A) (A) (A) (A) (A) (A) (A) (A)
                 (A) (A) (A) (A) (A) (A) (A) (A) (A) (A) (A) (A)
                 (A) (A) (A) (A) (A) (A) (A) (A) (A) (A) (A) (A)
                 (A) (A) (A) (A) (A) (A) (A) (A) (A) (A) (A) (A)
                 (A) (A) (A) (A) (A) (A) (A) (A) (A) (A) (A) (A)
                 (A) (A) (A) (A) (A) (A) (A) (A) (A) (A) (A) (A)
                 (A) (A) (A) (A) (A) (A) (A) (A) (A) (A) (A) (A)
                 (A) (A) (A) (A) (A) (A) (A) (A) (A) (A) (A) (A)
                 (A) (A) (A) (A) (A) (A) (A) (A) (A) (A) (A) (A)
                 (A) (A) (A) (A) (A) (A) (A) (A) (A) (A) (A) (A)
                 (A) (A) (A) (A) (A) (A) (A) (A) (A) (A) (A) (A)
                 (A) (A) (A) (A) (A) (A) (A) (A) (A) (A) (A) (A)
                 (A) (A) (A) (A) (A) (A) (A) (A) (A) (A) (A) (A)
                 (A) (A) (A) (A) (A) (A) (A) (A) (A) (A) (A) (A)
                 (A) (A) (A) (A) (A) (A) (A) (A) (A) (A) (A) (A)
                 (A) (A) (A) (A) (A) (A) (A) (A) (A) (A) (A) (A)
                 (A) (A) (A) (A) (A) (A) (A) (A) (A) (A) (A) (A)
                 (A) (A) (A) (A) (A) (A) (A) (A) (A) (A) (A) (A)
                 (A) (A) (A) (A) (A) (A) (A) (A) (A) (A) (A) (A)
                 (A) (A) (A) (A) (A) (A) (A) (A) (A) (A) (A) (A)
                 (A) (A) (A) (A) (A) (A) (A) (A) (A) (A) (A) (A)
                 (A) (A) (A) (A) (A) (A) (A) (A) (A) (A) (A) (A)
                 (A) (A) (A) (A) (A) (A) (A) (A) (A) (A) (A) (A)
                 (A) (A) (A) (A) (A) (A) (A) (A) (A) (A) (A) (A)
                 (A) (A) (A) (A) (A) (A) (A) (A) (A) (A) (A) (A)
                 (A) (A) (A) (A) (A) (A) (A) (A) (A) (A) (A) (A)
                 (A) (A) (A) (A) (A) (A) (A) (A) (A) (A) (A) (A)
                 (A) (A) (A) (A) (A) (A) (A) (A) (A) (A) (A) (A)
                 (A) (A) (A) (A) (A) (A) (A) (A) (A) (A) (A) (A)
                 (A) (A) (A) (A) (A) (A) (A) (A) (A) (A) (A) (A)
                 (A) (A) (A) (A) (A) (A) (A) (A) (A) (A) (A) (A)
                 (A) (A) (A) (A) (A) (A) (A) (A) (A) (A) (A) (A)
                 (A) (A) (A) (A) (A) (A) (A) (A) (A) (A) (A) (A)
                 (A) (A) (A) (A) (A) (A) (A) (A) (A) (A) (A) (A)
                 (A) (A) (A) (A) (A) (A) (A) (A) (A) (A) (A) (A)
                 (A) (A) (A) (A) (A) (A) (A) (A) (A) (A) (A) (A)
                 (A) (A) (A) (A) (A) (A) (A) (A) (A) (A) (A) (A)
                 (A) (A) (A) (A) (A) (A) (A) (A) (A) (A) (A) (A)
                 (A) (A) (A) (A) (A) (A) (A) (A) (A) (A) (A) (A)
                 (A) (A) (A) (A) (A) (A) (A) (A) (A) (A) (A) (A)
                 (A) (A) (A) (A) (A) (A) (A) (A) (A) (A) (A) (A)
                 (A) (A) (A) (A) (A) (A) (A) (A) (A) (A) (A) (A)
                 (A) (A) (A) (A) (A) (A) (A) (A) (A) (A) (A) (A)
                 (A) (A) (A) (A) (A) (A) (A) (A) (A) (A) (A) (A)
                 (A) (A) (A) (A) (A) (A) (A) (A) (A) (A) (A) (A)
                 (A) (A) (A) (A) (A) (A) (A) (A) (A) (A) (A) (A)
                 (A) (A) (A) (A) (A) (A) (A) (A) (A) (A) (A) (A)
                 (A) (A) (A) (A) (A) (A) (A) (A) (A) (A) (A) (A)
                 (A) (A) (A) (A) (A) (A) (A) (A) (A) (A) (A) (A)
                 (A) (A) (A) (A) (A) (A) (A) (A) (A) (A) (A) (A)
                 (A) (A) (A) (A) (A) (A) (A) (A) (A) (A) (A) (A)
                 (A) (A) (A) (A) (A) (A) (A) (A) (A) (A) (A) (A)
                 (A) (A) (A) (A) (A) (A) (A) (A) (A) (A) (A) (A)
                 (A) (A) (A) (A) (A) (A) (A) (A) (A) (A) (A) (A)
                 (A) (A) (A) (A) (A) (A) (A) (A) (A) (A) (A) (A)
                 (A) (A) (A) (A) (A) (A) (A) (A) (A) (A) (A) (A)
                 (A) (A) (A) (A) (A) (A) (A) (A) (A) (A) (A) (A)
                 (A) (A) (A) (A) (A) (A) (A) (A) (A) (A) (A) (A)
                 (A) (A) (A) (A) (A) (A) (A) (A) (A) (A) (A) (A)
                 (A) (A) (A) (A) (A) (A) (A) (A) (A) (A) (A) (A)
                 (A) (A) (A) (A) (A) (A) (A) (A) (A) (A) (A) (A)
                 (A) (A) (A) (A) (A) (A) (A) (A) (A) (A) (A) (A)
                 (A) (A) (A) (A) (A) (A) (A) (A) (A) (A) (A) (A)
                 (A) (A) (A) (A) (A) (A) (A) (A) (A) (A) (A) (A)
                 (A) (A) (A) (A) (A) (A) (A) (A) (A) (A) (A) (A)
                 (A) (A) (A) (A) (A) (A) (A) (A) (A) (A) (A) (A)
                 (A) (A) (A) (A) (A) (A) (A) (A) (A) (A) (A) (A)
                 (A) (A) (A) (A) (A) (A) (A) (A) (A) (A) (A) (A)
                 (A) (A) (A) (A) (A) (A) (A) (A) (A) (A) (A) (A)
                 (A) (A) (A) (A) (A) (A) (A) (A) (A) (A) (A) (A)
                 (A) (A) (A) (A) (A) (A) (A) (A) (A) (A) (A) (A)
                 (A) (A) (A) (A) (A) (A) (A) (A) (A) (A) (A) (A)
                 (A) (A) (A) (A) (A) (A) (A) (A) (A) (A) (A) (A)
                 (A) (A) (A) (A) (A) (A) (A) (A) (A) (A) (A) (A)
                 (A) (A) (A) (A) (A) (A) (A) (A) (A) (A) (A) (A)
                 (A) (A) (A) (A) (A) (A) (A) (A) (A) (A) (A) (A)
                 (A) (A) (A) (A) (A) (A) (A) (A) (A) (A) (A) (A)
                 (A) (A) (A) (A) (A) (A) (A) (A) (A) (A) (A) (A)
                 (A) (A) (A) (A) (A) (A) (A) (A) (A) (A) (A) (A)
                 (A) (A) (A) (A) (A) (A) (A) (A) (A) (A) (A) (A)
                 (A) (A) (A) (A) (A) (A) (A) (A) (A) (A) (A) (A)
                 (A) (A) (A) (A) (A) (A) (A) (A) (A) (A) (A) (A)
                 (A) (A) (A) (A) (A) (A) (A) (A) (A) (A) (A) (A)
                 (A) (A) (A) (A) (A) (A) (A) (A) (A) (A) (A) (A)
                 (A) (A) (A) (A) (A) (A) (A) (A) (A) (A) (A) (A)
                 (A) (A) (A) (A)
 The electronic state is 6-A.
 Alpha  occ. eigenvalues -- -256.49375 -30.30259 -26.13536 -26.11543 -26.11524
 Alpha  occ. eigenvalues --  -19.33882 -19.32533 -19.26184 -19.22439 -14.53763
 Alpha  occ. eigenvalues --  -14.53370 -14.47961 -14.47836 -14.47517 -14.47404
 Alpha  occ. eigenvalues --  -14.47395 -14.47222 -10.43688 -10.40599 -10.37697
 Alpha  occ. eigenvalues --  -10.37370 -10.34813 -10.34796 -10.34755 -10.34742
 Alpha  occ. eigenvalues --  -10.34624 -10.34598 -10.34488 -10.34442 -10.34304
 Alpha  occ. eigenvalues --  -10.34114 -10.32568 -10.32559 -10.32293 -10.32130
 Alpha  occ. eigenvalues --  -10.32127 -10.31942 -10.31907 -10.31804 -10.31721
 Alpha  occ. eigenvalues --  -10.31681 -10.31570 -10.31488 -10.31469 -10.31424
 Alpha  occ. eigenvalues --  -10.31273 -10.31102 -10.31091 -10.30954 -10.30791
 Alpha  occ. eigenvalues --  -10.30595 -10.30320 -10.30019 -10.29855 -10.29599
 Alpha  occ. eigenvalues --  -10.29296 -10.29061 -10.28624 -10.28278  -3.69766
 Alpha  occ. eigenvalues --   -2.49398  -2.43718  -2.43665  -1.24007  -1.23391
 Alpha  occ. eigenvalues --   -1.15479  -1.15432  -1.10456  -1.07443  -1.07296
 Alpha  occ. eigenvalues --   -1.06380  -1.05965  -1.05106  -1.00314  -1.00137
 Alpha  occ. eigenvalues --   -0.92916  -0.91993  -0.91672  -0.90725  -0.90499
 Alpha  occ. eigenvalues --   -0.90126  -0.90084  -0.90049  -0.89859  -0.87695
 Alpha  occ. eigenvalues --   -0.87215  -0.85561  -0.84787  -0.84760  -0.82778
 Alpha  occ. eigenvalues --   -0.81737  -0.81253  -0.81158  -0.80642  -0.79930
 Alpha  occ. eigenvalues --   -0.78276  -0.77769  -0.77039  -0.75263  -0.74846
 Alpha  occ. eigenvalues --   -0.74258  -0.73994  -0.73691  -0.72666  -0.71717
 Alpha  occ. eigenvalues --   -0.71327  -0.71145  -0.70904  -0.68452  -0.67157
 Alpha  occ. eigenvalues --   -0.66060  -0.65839  -0.65163  -0.63981  -0.63654
 Alpha  occ. eigenvalues --   -0.62800  -0.61754  -0.61295  -0.60812  -0.60507
 Alpha  occ. eigenvalues --   -0.59018  -0.58904  -0.57957  -0.57563  -0.57474
 Alpha  occ. eigenvalues --   -0.57291  -0.57048  -0.56921  -0.56734  -0.56673
 Alpha  occ. eigenvalues --   -0.55853  -0.55386  -0.55117  -0.54534  -0.54293
 Alpha  occ. eigenvalues --   -0.54124  -0.53721  -0.53560  -0.53243  -0.53074
 Alpha  occ. eigenvalues --   -0.52621  -0.52525  -0.52433  -0.52282  -0.52235
 Alpha  occ. eigenvalues --   -0.52017  -0.51901  -0.51566  -0.51550  -0.51418
 Alpha  occ. eigenvalues --   -0.51136  -0.51017  -0.50745  -0.50672  -0.50423
 Alpha  occ. eigenvalues --   -0.50370  -0.50124  -0.49924  -0.49842  -0.49507
 Alpha  occ. eigenvalues --   -0.49215  -0.49078  -0.48707  -0.48391  -0.48276
 Alpha  occ. eigenvalues --   -0.47929  -0.47733  -0.47607  -0.47552  -0.46963
 Alpha  occ. eigenvalues --   -0.46862  -0.46670  -0.46340  -0.46198  -0.45946
 Alpha  occ. eigenvalues --   -0.45759  -0.45447  -0.45126  -0.44252  -0.44042
 Alpha  occ. eigenvalues --   -0.43986  -0.43704  -0.43533  -0.43247  -0.42979
 Alpha  occ. eigenvalues --   -0.42156  -0.41681  -0.41556  -0.41363  -0.40871
 Alpha  occ. eigenvalues --   -0.39218  -0.39086  -0.37658  -0.37519  -0.37357
 Alpha  occ. eigenvalues --   -0.36071  -0.34611  -0.34342  -0.33854  -0.33728
 Alpha  occ. eigenvalues --   -0.33548  -0.32700  -0.32258  -0.30150  -0.29564
 Alpha  occ. eigenvalues --   -0.28737  -0.28501  -0.27336
 Alpha virt. eigenvalues --   -0.16866  -0.16543  -0.16308  -0.10083  -0.08895
 Alpha virt. eigenvalues --   -0.07479  -0.06907  -0.05878  -0.05089  -0.04786
 Alpha virt. eigenvalues --   -0.04582  -0.04440  -0.03938  -0.03708  -0.03409
 Alpha virt. eigenvalues --   -0.03311  -0.02855  -0.02377  -0.02125  -0.01812
 Alpha virt. eigenvalues --   -0.01272  -0.01138  -0.00986  -0.00945  -0.00601
 Alpha virt. eigenvalues --   -0.00260   0.00155   0.00374   0.00677   0.00890
 Alpha virt. eigenvalues --    0.01142   0.01381   0.01700   0.01990   0.02093
 Alpha virt. eigenvalues --    0.02438   0.02826   0.02947   0.03240   0.03529
 Alpha virt. eigenvalues --    0.03602   0.03795   0.04062   0.04259   0.04342
 Alpha virt. eigenvalues --    0.04513   0.04842   0.04892   0.04967   0.05230
 Alpha virt. eigenvalues --    0.05353   0.05572   0.05789   0.05943   0.06356
 Alpha virt. eigenvalues --    0.06618   0.06670   0.06805   0.06924   0.07312
 Alpha virt. eigenvalues --    0.07375   0.07583   0.07659   0.07763   0.08095
 Alpha virt. eigenvalues --    0.08282   0.08611   0.08818   0.08984   0.09124
 Alpha virt. eigenvalues --    0.09443   0.09477   0.09594   0.09710   0.10074
 Alpha virt. eigenvalues --    0.10261   0.10492   0.10684   0.11022   0.11144
 Alpha virt. eigenvalues --    0.11460   0.11664   0.11847   0.12054   0.12249
 Alpha virt. eigenvalues --    0.12371   0.12643   0.12724   0.13218   0.13458
 Alpha virt. eigenvalues --    0.13751   0.13901   0.13995   0.14246   0.14626
 Alpha virt. eigenvalues --    0.14687   0.14777   0.15033   0.15155   0.15403
 Alpha virt. eigenvalues --    0.15448   0.15577   0.15800   0.16012   0.16190
 Alpha virt. eigenvalues --    0.16528   0.16648   0.16694   0.16980   0.17244
 Alpha virt. eigenvalues --    0.17524   0.17713   0.17927   0.18077   0.18283
 Alpha virt. eigenvalues --    0.18435   0.18588   0.18797   0.18920   0.19045
 Alpha virt. eigenvalues --    0.19406   0.19853   0.19948   0.20107   0.20345
 Alpha virt. eigenvalues --    0.20596   0.20675   0.20777   0.20939   0.21304
 Alpha virt. eigenvalues --    0.21357   0.21559   0.21808   0.22019   0.22141
 Alpha virt. eigenvalues --    0.22599   0.22743   0.22813   0.23364   0.23466
 Alpha virt. eigenvalues --    0.23622   0.23971   0.24074   0.24340   0.24926
 Alpha virt. eigenvalues --    0.25097   0.25199   0.25521   0.25910   0.25944
 Alpha virt. eigenvalues --    0.26103   0.26339   0.26500   0.26676   0.26908
 Alpha virt. eigenvalues --    0.27230   0.27339   0.27656   0.27830   0.27933
 Alpha virt. eigenvalues --    0.28084   0.28408   0.28574   0.28665   0.29100
 Alpha virt. eigenvalues --    0.29380   0.29568   0.29834   0.29961   0.30162
 Alpha virt. eigenvalues --    0.30348   0.30414   0.30649   0.30677   0.30955
 Alpha virt. eigenvalues --    0.31346   0.31423   0.31445   0.31790   0.32122
 Alpha virt. eigenvalues --    0.32234   0.32401   0.32466   0.32865   0.33015
 Alpha virt. eigenvalues --    0.33088   0.33339   0.33437   0.33699   0.33733
 Alpha virt. eigenvalues --    0.34033   0.34379   0.34479   0.34535   0.34582
 Alpha virt. eigenvalues --    0.34923   0.34980   0.35171   0.35485   0.35704
 Alpha virt. eigenvalues --    0.35986   0.36025   0.36179   0.36362   0.36561
 Alpha virt. eigenvalues --    0.36609   0.36840   0.36970   0.37184   0.37351
 Alpha virt. eigenvalues --    0.37502   0.37757   0.38065   0.38214   0.38447
 Alpha virt. eigenvalues --    0.38569   0.38696   0.38722   0.38928   0.39022
 Alpha virt. eigenvalues --    0.39153   0.39285   0.39306   0.39413   0.39626
 Alpha virt. eigenvalues --    0.39790   0.40073   0.40324   0.40364   0.40563
 Alpha virt. eigenvalues --    0.40860   0.41046   0.41205   0.41422   0.41619
 Alpha virt. eigenvalues --    0.41751   0.41837   0.41899   0.42147   0.42386
 Alpha virt. eigenvalues --    0.42509   0.42658   0.42948   0.43081   0.43214
 Alpha virt. eigenvalues --    0.43250   0.43560   0.43674   0.43734   0.43921
 Alpha virt. eigenvalues --    0.44017   0.44292   0.44483   0.44527   0.44846
 Alpha virt. eigenvalues --    0.44923   0.45060   0.45429   0.45551   0.45956
 Alpha virt. eigenvalues --    0.45969   0.46219   0.46298   0.46574   0.46913
 Alpha virt. eigenvalues --    0.46981   0.47076   0.47165   0.47549   0.47648
 Alpha virt. eigenvalues --    0.47868   0.47996   0.48289   0.48499   0.48587
 Alpha virt. eigenvalues --    0.48706   0.48922   0.49122   0.49401   0.49519
 Alpha virt. eigenvalues --    0.49702   0.49893   0.50105   0.50162   0.50466
 Alpha virt. eigenvalues --    0.50638   0.50904   0.51231   0.51376   0.51829
 Alpha virt. eigenvalues --    0.52070   0.52157   0.52447   0.52817   0.52956
 Alpha virt. eigenvalues --    0.53237   0.53418   0.53712   0.53852   0.54000
 Alpha virt. eigenvalues --    0.54269   0.54791   0.54846   0.55232   0.55360
 Alpha virt. eigenvalues --    0.55666   0.56008   0.56121   0.56580   0.56837
 Alpha virt. eigenvalues --    0.56976   0.57124   0.57516   0.57605   0.57632
 Alpha virt. eigenvalues --    0.57803   0.58234   0.58614   0.58689   0.58865
 Alpha virt. eigenvalues --    0.59171   0.59404   0.59647   0.60046   0.60551
 Alpha virt. eigenvalues --    0.60616   0.60883   0.61123   0.61411   0.61652
 Alpha virt. eigenvalues --    0.62016   0.62433   0.62503   0.62800   0.63280
 Alpha virt. eigenvalues --    0.63660   0.64020   0.64182   0.64313   0.64605
 Alpha virt. eigenvalues --    0.64663   0.65169   0.65418   0.65686   0.65992
 Alpha virt. eigenvalues --    0.66555   0.66759   0.66909   0.67307   0.67442
 Alpha virt. eigenvalues --    0.67548   0.67743   0.68225   0.68459   0.68594
 Alpha virt. eigenvalues --    0.69172   0.69360   0.69749   0.70202   0.70501
 Alpha virt. eigenvalues --    0.70764   0.70886   0.71107   0.71640   0.71861
 Alpha virt. eigenvalues --    0.72222   0.72528   0.72730   0.72769   0.72908
 Alpha virt. eigenvalues --    0.73715   0.73791   0.74286   0.74370   0.74510
 Alpha virt. eigenvalues --    0.74687   0.74914   0.75151   0.75680   0.75805
 Alpha virt. eigenvalues --    0.76209   0.76815   0.76921   0.77240   0.77633
 Alpha virt. eigenvalues --    0.77772   0.77959   0.78281   0.78613   0.78746
 Alpha virt. eigenvalues --    0.79104   0.79251   0.79779   0.80222   0.80356
 Alpha virt. eigenvalues --    0.80932   0.81055   0.81332   0.81515   0.82007
 Alpha virt. eigenvalues --    0.82260   0.82450   0.82829   0.82971   0.83177
 Alpha virt. eigenvalues --    0.83340   0.83542   0.84072   0.84234   0.84447
 Alpha virt. eigenvalues --    0.84886   0.84938   0.85125   0.85602   0.85846
 Alpha virt. eigenvalues --    0.86048   0.86555   0.86817   0.86879   0.87112
 Alpha virt. eigenvalues --    0.87470   0.87712   0.87863   0.88157   0.88194
 Alpha virt. eigenvalues --    0.88457   0.88770   0.88829   0.89054   0.89262
 Alpha virt. eigenvalues --    0.89503   0.89523   0.89842   0.90005   0.90584
 Alpha virt. eigenvalues --    0.90628   0.90897   0.91137   0.91505   0.91754
 Alpha virt. eigenvalues --    0.92210   0.92312   0.93234   0.93317   0.93610
 Alpha virt. eigenvalues --    0.93756   0.93994   0.94211   0.94556   0.94821
 Alpha virt. eigenvalues --    0.95102   0.95238   0.95514   0.95830   0.95901
 Alpha virt. eigenvalues --    0.96385   0.96547   0.96634   0.96989   0.97126
 Alpha virt. eigenvalues --    0.97592   0.98093   0.98460   0.98693   0.99042
 Alpha virt. eigenvalues --    0.99144   0.99895   1.00003   1.00125   1.00640
 Alpha virt. eigenvalues --    1.00883   1.01182   1.01433   1.01561   1.02014
 Alpha virt. eigenvalues --    1.02425   1.02507   1.02940   1.03266   1.03585
 Alpha virt. eigenvalues --    1.03869   1.03987   1.04261   1.04438   1.04699
 Alpha virt. eigenvalues --    1.05499   1.05696   1.05885   1.06017   1.06273
 Alpha virt. eigenvalues --    1.06480   1.06759   1.06932   1.07582   1.08048
 Alpha virt. eigenvalues --    1.08625   1.08834   1.09225   1.09637   1.09669
 Alpha virt. eigenvalues --    1.09927   1.10318   1.10856   1.11059   1.11265
 Alpha virt. eigenvalues --    1.11901   1.12088   1.12317   1.12543   1.12840
 Alpha virt. eigenvalues --    1.13188   1.13376   1.13499   1.14096   1.14262
 Alpha virt. eigenvalues --    1.14411   1.14720   1.15394   1.15924   1.16004
 Alpha virt. eigenvalues --    1.16217   1.16489   1.17094   1.17254   1.17554
 Alpha virt. eigenvalues --    1.17742   1.18005   1.18583   1.19081   1.19146
 Alpha virt. eigenvalues --    1.19488   1.20139   1.20383   1.20554   1.20742
 Alpha virt. eigenvalues --    1.21369   1.21745   1.21859   1.22727   1.22929
 Alpha virt. eigenvalues --    1.23138   1.23269   1.24017   1.24397   1.24674
 Alpha virt. eigenvalues --    1.24812   1.25046   1.26126   1.26204   1.26555
 Alpha virt. eigenvalues --    1.26738   1.27160   1.27228   1.27755   1.28003
 Alpha virt. eigenvalues --    1.28473   1.28758   1.29019   1.29369   1.30070
 Alpha virt. eigenvalues --    1.30306   1.31183   1.31313   1.31829   1.32226
 Alpha virt. eigenvalues --    1.32455   1.32946   1.33314   1.33807   1.33890
 Alpha virt. eigenvalues --    1.34500   1.34918   1.35285   1.35624   1.35831
 Alpha virt. eigenvalues --    1.36017   1.36769   1.37339   1.37596   1.37601
 Alpha virt. eigenvalues --    1.38177   1.38403   1.38717   1.39071   1.39389
 Alpha virt. eigenvalues --    1.39792   1.40024   1.40184   1.40731   1.40911
 Alpha virt. eigenvalues --    1.41094   1.41599   1.41841   1.42080   1.42263
 Alpha virt. eigenvalues --    1.42439   1.43008   1.43421   1.43595   1.43955
 Alpha virt. eigenvalues --    1.44198   1.44562   1.44593   1.45041   1.45347
 Alpha virt. eigenvalues --    1.45680   1.45802   1.45977   1.46143   1.46227
 Alpha virt. eigenvalues --    1.46357   1.46711   1.46745   1.46924   1.47456
 Alpha virt. eigenvalues --    1.47626   1.47830   1.48031   1.48221   1.48317
 Alpha virt. eigenvalues --    1.48490   1.48764   1.48868   1.49234   1.49259
 Alpha virt. eigenvalues --    1.49792   1.50091   1.50216   1.50635   1.50768
 Alpha virt. eigenvalues --    1.51056   1.51531   1.51679   1.51841   1.52089
 Alpha virt. eigenvalues --    1.52287   1.52408   1.52583   1.52730   1.53159
 Alpha virt. eigenvalues --    1.53264   1.53806   1.54154   1.54509   1.54527
 Alpha virt. eigenvalues --    1.54858   1.54900   1.55046   1.55395   1.55802
 Alpha virt. eigenvalues --    1.56221   1.56277   1.56572   1.57032   1.57197
 Alpha virt. eigenvalues --    1.57240   1.57354   1.57782   1.57831   1.58057
 Alpha virt. eigenvalues --    1.58313   1.58462   1.58781   1.58886   1.59165
 Alpha virt. eigenvalues --    1.59701   1.59850   1.60070   1.60433   1.60498
 Alpha virt. eigenvalues --    1.60933   1.61343   1.61767   1.61950   1.62084
 Alpha virt. eigenvalues --    1.62613   1.62673   1.63039   1.63175   1.63460
 Alpha virt. eigenvalues --    1.63733   1.64073   1.64285   1.64374   1.64739
 Alpha virt. eigenvalues --    1.65029   1.65276   1.65634   1.66014   1.66296
 Alpha virt. eigenvalues --    1.66562   1.66934   1.67165   1.67906   1.68281
 Alpha virt. eigenvalues --    1.68627   1.68833   1.68987   1.69292   1.69811
 Alpha virt. eigenvalues --    1.70165   1.70527   1.71099   1.71202   1.71667
 Alpha virt. eigenvalues --    1.72054   1.72588   1.72749   1.73090   1.74007
 Alpha virt. eigenvalues --    1.74223   1.74460   1.75593   1.75652   1.76084
 Alpha virt. eigenvalues --    1.76375   1.76769   1.77321   1.77616   1.77808
 Alpha virt. eigenvalues --    1.78300   1.78348   1.79054   1.79337   1.79860
 Alpha virt. eigenvalues --    1.80114   1.80492   1.80885   1.81073   1.81294
 Alpha virt. eigenvalues --    1.82135   1.82335   1.82563   1.83055   1.83402
 Alpha virt. eigenvalues --    1.83779   1.83940   1.84450   1.84648   1.84990
 Alpha virt. eigenvalues --    1.85119   1.85782   1.86206   1.86924   1.87149
 Alpha virt. eigenvalues --    1.87354   1.87682   1.87853   1.88084   1.88232
 Alpha virt. eigenvalues --    1.88832   1.89173   1.89421   1.89740   1.90369
 Alpha virt. eigenvalues --    1.90477   1.90856   1.91213   1.91436   1.91723
 Alpha virt. eigenvalues --    1.92170   1.92373   1.92663   1.93014   1.93107
 Alpha virt. eigenvalues --    1.93278   1.93760   1.94440   1.94804   1.94955
 Alpha virt. eigenvalues --    1.95379   1.95695   1.96228   1.96493   1.96732
 Alpha virt. eigenvalues --    1.96904   1.97317   1.97484   1.97829   1.98334
 Alpha virt. eigenvalues --    1.98662   1.98867   1.99220   1.99817   1.99974
 Alpha virt. eigenvalues --    2.00121   2.00572   2.01041   2.01208   2.02041
 Alpha virt. eigenvalues --    2.02190   2.02490   2.02810   2.03103   2.03558
 Alpha virt. eigenvalues --    2.03952   2.04277   2.04699   2.04824   2.05128
 Alpha virt. eigenvalues --    2.05612   2.05996   2.06127   2.06481   2.06794
 Alpha virt. eigenvalues --    2.06977   2.07271   2.07722   2.07840   2.08097
 Alpha virt. eigenvalues --    2.08290   2.08484   2.08764   2.09363   2.09650
 Alpha virt. eigenvalues --    2.10142   2.10361   2.10408   2.11015   2.11109
 Alpha virt. eigenvalues --    2.11250   2.11632   2.12130   2.12310   2.12633
 Alpha virt. eigenvalues --    2.13218   2.13417   2.13504   2.13802   2.14201
 Alpha virt. eigenvalues --    2.14445   2.15254   2.15362   2.15769   2.16669
 Alpha virt. eigenvalues --    2.16821   2.16921   2.17325   2.17709   2.18263
 Alpha virt. eigenvalues --    2.18499   2.19422   2.19641   2.20028   2.20429
 Alpha virt. eigenvalues --    2.20704   2.20760   2.21209   2.21363   2.21716
 Alpha virt. eigenvalues --    2.21943   2.22248   2.22934   2.23449   2.23606
 Alpha virt. eigenvalues --    2.23980   2.24422   2.24514   2.24870   2.24991
 Alpha virt. eigenvalues --    2.25596   2.25772   2.26492   2.26702   2.27036
 Alpha virt. eigenvalues --    2.27234   2.27427   2.27881   2.28198   2.28463
 Alpha virt. eigenvalues --    2.28532   2.28694   2.28829   2.29307   2.29622
 Alpha virt. eigenvalues --    2.29733   2.30097   2.30465   2.30718   2.31284
 Alpha virt. eigenvalues --    2.31845   2.32028   2.32077   2.32725   2.33500
 Alpha virt. eigenvalues --    2.33576   2.33974   2.34045   2.34346   2.35271
 Alpha virt. eigenvalues --    2.35508   2.35789   2.36103   2.36669   2.36884
 Alpha virt. eigenvalues --    2.37062   2.37284   2.37696   2.37880   2.38449
 Alpha virt. eigenvalues --    2.38567   2.38667   2.39193   2.39461   2.39818
 Alpha virt. eigenvalues --    2.40640   2.41185   2.41519   2.41759   2.42050
 Alpha virt. eigenvalues --    2.42479   2.42801   2.43290   2.43690   2.43845
 Alpha virt. eigenvalues --    2.44037   2.44262   2.44890   2.45410   2.45995
 Alpha virt. eigenvalues --    2.46135   2.46490   2.46597   2.46724   2.47706
 Alpha virt. eigenvalues --    2.47921   2.48204   2.48709   2.49041   2.49310
 Alpha virt. eigenvalues --    2.49740   2.49816   2.50160   2.50445   2.50828
 Alpha virt. eigenvalues --    2.51029   2.51236   2.51546   2.51757   2.52188
 Alpha virt. eigenvalues --    2.52425   2.52757   2.53280   2.53502   2.53868
 Alpha virt. eigenvalues --    2.54343   2.54544   2.54952   2.55103   2.55211
 Alpha virt. eigenvalues --    2.55265   2.55737   2.55968   2.56044   2.56275
 Alpha virt. eigenvalues --    2.56501   2.56952   2.57321   2.57645   2.57758
 Alpha virt. eigenvalues --    2.58092   2.58273   2.58734   2.58931   2.59792
 Alpha virt. eigenvalues --    2.59910   2.60265   2.60988   2.61217   2.61303
 Alpha virt. eigenvalues --    2.61536   2.61878   2.62079   2.62607   2.62874
 Alpha virt. eigenvalues --    2.62903   2.63313   2.63670   2.63841   2.64409
 Alpha virt. eigenvalues --    2.64564   2.65139   2.65512   2.65783   2.65919
 Alpha virt. eigenvalues --    2.66280   2.66642   2.66935   2.67339   2.67584
 Alpha virt. eigenvalues --    2.67864   2.68246   2.68761   2.69205   2.69233
 Alpha virt. eigenvalues --    2.69834   2.70337   2.70626   2.71273   2.71594
 Alpha virt. eigenvalues --    2.71801   2.72074   2.72394   2.72431   2.72632
 Alpha virt. eigenvalues --    2.73030   2.73142   2.73487   2.74031   2.74293
 Alpha virt. eigenvalues --    2.74672   2.74862   2.75537   2.75649   2.75798
 Alpha virt. eigenvalues --    2.76154   2.76884   2.77290   2.77501   2.77662
 Alpha virt. eigenvalues --    2.78031   2.78132   2.78328   2.78850   2.78937
 Alpha virt. eigenvalues --    2.79556   2.80071   2.80390   2.80651   2.81010
 Alpha virt. eigenvalues --    2.81090   2.81253   2.81758   2.82164   2.82400
 Alpha virt. eigenvalues --    2.82468   2.82614   2.83037   2.83552   2.83812
 Alpha virt. eigenvalues --    2.84091   2.84513   2.84857   2.85272   2.85499
 Alpha virt. eigenvalues --    2.85787   2.85999   2.86421   2.86728   2.86852
 Alpha virt. eigenvalues --    2.87281   2.87422   2.87532   2.87975   2.88345
 Alpha virt. eigenvalues --    2.88686   2.88958   2.89194   2.89481   2.90080
 Alpha virt. eigenvalues --    2.90387   2.90552   2.90786   2.90882   2.91012
 Alpha virt. eigenvalues --    2.91274   2.91945   2.92332   2.92648   2.92843
 Alpha virt. eigenvalues --    2.93050   2.93285   2.93591   2.94066   2.94217
 Alpha virt. eigenvalues --    2.94322   2.94829   2.95267   2.95280   2.95764
 Alpha virt. eigenvalues --    2.96082   2.96425   2.96518   2.97027   2.97300
 Alpha virt. eigenvalues --    2.97612   2.97879   2.97908   2.98259   2.98544
 Alpha virt. eigenvalues --    2.98717   2.99123   2.99389   3.00001   3.00226
 Alpha virt. eigenvalues --    3.00288   3.00619   3.00900   3.01045   3.01215
 Alpha virt. eigenvalues --    3.01349   3.01774   3.01824   3.02219   3.02435
 Alpha virt. eigenvalues --    3.02689   3.03114   3.03212   3.03465   3.03826
 Alpha virt. eigenvalues --    3.03930   3.04178   3.04350   3.04842   3.04990
 Alpha virt. eigenvalues --    3.05238   3.05383   3.05729   3.05781   3.05926
 Alpha virt. eigenvalues --    3.06480   3.06797   3.06848   3.07136   3.07259
 Alpha virt. eigenvalues --    3.07586   3.07785   3.08178   3.08286   3.08528
 Alpha virt. eigenvalues --    3.08867   3.08930   3.09194   3.09537   3.09634
 Alpha virt. eigenvalues --    3.09905   3.10302   3.10601   3.10714   3.11138
 Alpha virt. eigenvalues --    3.11210   3.11452   3.11704   3.12080   3.12447
 Alpha virt. eigenvalues --    3.12786   3.13014   3.13422   3.13494   3.13880
 Alpha virt. eigenvalues --    3.14093   3.14373   3.14499   3.14607   3.14757
 Alpha virt. eigenvalues --    3.15047   3.15425   3.15638   3.15928   3.16197
 Alpha virt. eigenvalues --    3.16429   3.16572   3.16873   3.17008   3.17210
 Alpha virt. eigenvalues --    3.17695   3.17993   3.18182   3.18243   3.18437
 Alpha virt. eigenvalues --    3.18768   3.19003   3.19285   3.19659   3.19895
 Alpha virt. eigenvalues --    3.20074   3.20264   3.20660   3.20878   3.21127
 Alpha virt. eigenvalues --    3.21587   3.21834   3.21991   3.22278   3.22597
 Alpha virt. eigenvalues --    3.22723   3.22894   3.23045   3.23257   3.23508
 Alpha virt. eigenvalues --    3.23952   3.24217   3.24670   3.24740   3.25179
 Alpha virt. eigenvalues --    3.25364   3.25467   3.25894   3.26079   3.26276
 Alpha virt. eigenvalues --    3.26535   3.26798   3.27266   3.27572   3.27908
 Alpha virt. eigenvalues --    3.27977   3.28078   3.28211   3.28398   3.28793
 Alpha virt. eigenvalues --    3.28895   3.29097   3.29478   3.29642   3.29786
 Alpha virt. eigenvalues --    3.29947   3.30215   3.30518   3.30675   3.30925
 Alpha virt. eigenvalues --    3.30966   3.31344   3.31578   3.31694   3.31889
 Alpha virt. eigenvalues --    3.32172   3.32519   3.32876   3.33059   3.33196
 Alpha virt. eigenvalues --    3.33588   3.33994   3.34442   3.34807   3.34852
 Alpha virt. eigenvalues --    3.34946   3.35654   3.35746   3.35876   3.36342
 Alpha virt. eigenvalues --    3.36394   3.36656   3.36809   3.36942   3.37205
 Alpha virt. eigenvalues --    3.37554   3.38078   3.38201   3.38409   3.38661
 Alpha virt. eigenvalues --    3.39204   3.39399   3.39805   3.40055   3.40224
 Alpha virt. eigenvalues --    3.40588   3.41244   3.41528   3.41590   3.41719
 Alpha virt. eigenvalues --    3.41832   3.42285   3.42909   3.43177   3.43399
 Alpha virt. eigenvalues --    3.44070   3.44446   3.44767   3.44968   3.45513
 Alpha virt. eigenvalues --    3.45801   3.45944   3.46366   3.46498   3.46864
 Alpha virt. eigenvalues --    3.47162   3.47397   3.47638   3.47824   3.48359
 Alpha virt. eigenvalues --    3.48897   3.49394   3.49593   3.49904   3.50287
 Alpha virt. eigenvalues --    3.50398   3.50824   3.51070   3.51478   3.51652
 Alpha virt. eigenvalues --    3.51780   3.52389   3.52698   3.53124   3.53355
 Alpha virt. eigenvalues --    3.53574   3.53972   3.54096   3.54508   3.54704
 Alpha virt. eigenvalues --    3.55089   3.55365   3.55564   3.56044   3.56280
 Alpha virt. eigenvalues --    3.56718   3.56941   3.57276   3.57679   3.57981
 Alpha virt. eigenvalues --    3.58846   3.59262   3.59304   3.59488   3.59823
 Alpha virt. eigenvalues --    3.60135   3.60602   3.60739   3.61288   3.61609
 Alpha virt. eigenvalues --    3.61914   3.62342   3.62543   3.63287   3.63884
 Alpha virt. eigenvalues --    3.64169   3.64312   3.64401   3.65069   3.65222
 Alpha virt. eigenvalues --    3.65767   3.65892   3.66139   3.66546   3.66949
 Alpha virt. eigenvalues --    3.67193   3.67536   3.67754   3.68028   3.68349
 Alpha virt. eigenvalues --    3.68715   3.68982   3.69436   3.69747   3.69990
 Alpha virt. eigenvalues --    3.70241   3.70775   3.71490   3.71860   3.72162
 Alpha virt. eigenvalues --    3.72927   3.73582   3.74052   3.74396   3.74700
 Alpha virt. eigenvalues --    3.75252   3.75723   3.75944   3.76302   3.76392
 Alpha virt. eigenvalues --    3.76733   3.77028   3.78240   3.78527   3.78708
 Alpha virt. eigenvalues --    3.78902   3.79632   3.79908   3.80530   3.81384
 Alpha virt. eigenvalues --    3.81572   3.82047   3.82430   3.83008   3.83179
 Alpha virt. eigenvalues --    3.83816   3.84134   3.84666   3.85022   3.85423
 Alpha virt. eigenvalues --    3.85740   3.85959   3.86377   3.86841   3.87601
 Alpha virt. eigenvalues --    3.88052   3.88507   3.88884   3.89330   3.89855
 Alpha virt. eigenvalues --    3.90235   3.90439   3.90919   3.91344   3.91913
 Alpha virt. eigenvalues --    3.92193   3.92684   3.93078   3.93935   3.94159
 Alpha virt. eigenvalues --    3.94195   3.94880   3.95227   3.95747   3.96772
 Alpha virt. eigenvalues --    3.97038   3.97447   3.97730   3.98345   3.98957
 Alpha virt. eigenvalues --    3.99393   4.00230   4.01195   4.01816   4.01969
 Alpha virt. eigenvalues --    4.02509   4.03228   4.03954   4.04282   4.05353
 Alpha virt. eigenvalues --    4.05422   4.05789   4.06803   4.07172   4.07948
 Alpha virt. eigenvalues --    4.08878   4.09096   4.09543   4.10027   4.10574
 Alpha virt. eigenvalues --    4.10910   4.11271   4.12108   4.12443   4.13024
 Alpha virt. eigenvalues --    4.13240   4.13641   4.13996   4.14510   4.15059
 Alpha virt. eigenvalues --    4.15667   4.16130   4.16858   4.17314   4.17555
 Alpha virt. eigenvalues --    4.17849   4.18365   4.19088   4.19517   4.20099
 Alpha virt. eigenvalues --    4.20267   4.20996   4.21146   4.22249   4.22460
 Alpha virt. eigenvalues --    4.22764   4.23193   4.23728   4.24555   4.24979
 Alpha virt. eigenvalues --    4.25164   4.25642   4.26279   4.26915   4.27167
 Alpha virt. eigenvalues --    4.27405   4.28024   4.28628   4.28980   4.29958
 Alpha virt. eigenvalues --    4.30106   4.30502   4.30835   4.31161   4.31505
 Alpha virt. eigenvalues --    4.31864   4.32161   4.32468   4.32910   4.33119
 Alpha virt. eigenvalues --    4.33699   4.34408   4.35349   4.35729   4.36188
 Alpha virt. eigenvalues --    4.36475   4.37218   4.37701   4.38339   4.39383
 Alpha virt. eigenvalues --    4.39951   4.40383   4.40488   4.40670   4.41179
 Alpha virt. eigenvalues --    4.41476   4.41887   4.42160   4.42931   4.43071
 Alpha virt. eigenvalues --    4.43318   4.43801   4.44482   4.45047   4.45295
 Alpha virt. eigenvalues --    4.46231   4.46936   4.48310   4.49758   4.50628
 Alpha virt. eigenvalues --    4.51132   4.52166   4.52556   4.53644   4.53861
 Alpha virt. eigenvalues --    4.54562   4.54880   4.55661   4.56950   4.57082
 Alpha virt. eigenvalues --    4.57271   4.58133   4.58700   4.59224   4.59556
 Alpha virt. eigenvalues --    4.60140   4.60483   4.60667   4.61513   4.62272
 Alpha virt. eigenvalues --    4.62497   4.63141   4.63740   4.64318   4.64480
 Alpha virt. eigenvalues --    4.65043   4.66140   4.66550   4.67006   4.67504
 Alpha virt. eigenvalues --    4.67979   4.69140   4.69395   4.70315   4.70489
 Alpha virt. eigenvalues --    4.71206   4.71399   4.72118   4.72616   4.73261
 Alpha virt. eigenvalues --    4.73443   4.74413   4.75008   4.75318   4.75948
 Alpha virt. eigenvalues --    4.76043   4.76556   4.76914   4.77625   4.78010
 Alpha virt. eigenvalues --    4.79442   4.79933   4.80669   4.80807   4.81557
 Alpha virt. eigenvalues --    4.81854   4.82568   4.83144   4.84533   4.84632
 Alpha virt. eigenvalues --    4.85170   4.85887   4.85973   4.86265   4.87218
 Alpha virt. eigenvalues --    4.88930   4.89321   4.89479   4.90143   4.90542
 Alpha virt. eigenvalues --    4.91505   4.91915   4.93195   4.93860   4.94355
 Alpha virt. eigenvalues --    4.94831   4.95327   4.96016   4.96907   4.97478
 Alpha virt. eigenvalues --    4.98501   4.99227   5.00302   5.00639   5.01627
 Alpha virt. eigenvalues --    5.02626   5.03302   5.04410   5.05925   5.06831
 Alpha virt. eigenvalues --    5.07302   5.08126   5.09658   5.10067   5.11456
 Alpha virt. eigenvalues --    5.12322   5.12649   5.13169   5.13939   5.14104
 Alpha virt. eigenvalues --    5.14917   5.15205   5.15805   5.16420   5.16606
 Alpha virt. eigenvalues --    5.16971   5.17410   5.17992   5.18378   5.20007
 Alpha virt. eigenvalues --    5.21264   5.21559   5.22416   5.23586   5.24745
 Alpha virt. eigenvalues --    5.24882   5.26418   5.26836   5.26942   5.27216
 Alpha virt. eigenvalues --    5.28118   5.28794   5.30012   5.31060   5.33061
 Alpha virt. eigenvalues --    5.33583   5.34482   5.35056   5.35774   5.36536
 Alpha virt. eigenvalues --    5.36986   5.37353   5.37808   5.38425   5.39703
 Alpha virt. eigenvalues --    5.40172   5.41039   5.42878   5.44890   5.45490
 Alpha virt. eigenvalues --    5.46234   5.46546   5.47796   5.48404   5.48968
 Alpha virt. eigenvalues --    5.50110   5.50869   5.51461   5.52845   5.54022
 Alpha virt. eigenvalues --    5.54595   5.54781   5.56477   5.56588   5.57604
 Alpha virt. eigenvalues --    5.59168   5.60261   5.60617   5.62254   5.63534
 Alpha virt. eigenvalues --    5.64956   5.67061   5.69101   5.72052   5.73180
 Alpha virt. eigenvalues --    5.74453   5.75002   5.76368   5.78716   5.84383
 Alpha virt. eigenvalues --    5.85491   5.86928   5.87629   5.89433   5.90272
 Alpha virt. eigenvalues --    5.91658   5.92335   5.93262   5.94634   5.96128
 Alpha virt. eigenvalues --    5.97430   5.98753   6.01424   6.01774   6.02014
 Alpha virt. eigenvalues --    6.02627   6.04298   6.04456   6.08061   6.08279
 Alpha virt. eigenvalues --    6.08952   6.12266   6.12407   6.16878   6.18990
 Alpha virt. eigenvalues --    6.19465   6.19911   6.21436   6.23927   6.29361
 Alpha virt. eigenvalues --    6.30412   6.35943   6.40174   6.42097   6.43253
 Alpha virt. eigenvalues --    6.46499   6.47239   6.58028   6.63920   6.66922
 Alpha virt. eigenvalues --    6.69774   6.79139   6.81899   6.85772   6.87024
 Alpha virt. eigenvalues --    6.91467   6.95825   7.05304   7.07472   7.07683
 Alpha virt. eigenvalues --    7.11586   7.18188   7.32252  22.30863  22.31678
 Alpha virt. eigenvalues --   22.39258  22.42142  22.44350  22.44759  22.45361
 Alpha virt. eigenvalues --   22.46952  22.50815  22.52215  22.54808  22.59777
 Alpha virt. eigenvalues --   22.62450  22.63376  22.73891  22.74599  22.77708
 Alpha virt. eigenvalues --   22.79007  22.81806  22.85327  22.87586  22.95029
 Alpha virt. eigenvalues --   22.95977  23.04095  23.05207  23.06565  23.13457
 Alpha virt. eigenvalues --   23.15096  23.18880  23.23645  23.25216  23.27217
 Alpha virt. eigenvalues --   23.30156  23.34889  23.36010  23.41284  23.44345
 Alpha virt. eigenvalues --   23.55144  23.58170  23.60933  23.65318  23.75507
 Alpha virt. eigenvalues --   32.39200  32.39897  32.71797  32.78059  32.92360
 Alpha virt. eigenvalues --   32.95515  32.98585  33.30769  43.86621  43.88631
 Alpha virt. eigenvalues --   43.90561  43.91904
  Beta  occ. eigenvalues -- -256.49277 -30.23892 -26.07280 -26.07246 -26.06030
  Beta  occ. eigenvalues --  -19.33882 -19.32533 -19.26184 -19.22439 -14.53746
  Beta  occ. eigenvalues --  -14.53356 -14.47697 -14.47598 -14.47568 -14.47430
  Beta  occ. eigenvalues --  -14.47396 -14.47278 -10.43688 -10.40599 -10.37668
  Beta  occ. eigenvalues --  -10.37352 -10.34804 -10.34764 -10.34748 -10.34636
  Beta  occ. eigenvalues --  -10.34625 -10.34582 -10.34425 -10.34416 -10.34333
  Beta  occ. eigenvalues --  -10.34133 -10.32282 -10.32120 -10.32115 -10.31917
  Beta  occ. eigenvalues --  -10.31877 -10.31801 -10.31748 -10.31659 -10.31519
  Beta  occ. eigenvalues --  -10.31513 -10.31439 -10.31390 -10.31275 -10.31098
  Beta  occ. eigenvalues --  -10.31092 -10.31064 -10.31064 -10.30952 -10.30812
  Beta  occ. eigenvalues --  -10.30592 -10.30321 -10.30019 -10.29855 -10.29601
  Beta  occ. eigenvalues --  -10.29308 -10.29071 -10.28700 -10.28355  -3.54497
  Beta  occ. eigenvalues --   -2.30652  -2.30603  -2.26362  -1.24006  -1.23391
  Beta  occ. eigenvalues --   -1.15335  -1.15289  -1.10456  -1.07443  -1.07251
  Beta  occ. eigenvalues --   -1.06351  -1.05933  -1.05057  -1.00038  -0.99857
  Beta  occ. eigenvalues --   -0.92845  -0.91972  -0.91643  -0.90194  -0.90077
  Beta  occ. eigenvalues --   -0.90037  -0.90027  -0.89897  -0.89440  -0.87632
  Beta  occ. eigenvalues --   -0.87198  -0.84811  -0.84527  -0.83579  -0.82481
  Beta  occ. eigenvalues --   -0.81673  -0.81233  -0.81087  -0.80606  -0.79895
  Beta  occ. eigenvalues --   -0.78243  -0.77769  -0.77029  -0.75214  -0.74739
  Beta  occ. eigenvalues --   -0.73976  -0.73915  -0.73450  -0.72611  -0.71091
  Beta  occ. eigenvalues --   -0.70851  -0.70149  -0.69501  -0.68316  -0.67088
  Beta  occ. eigenvalues --   -0.65917  -0.65699  -0.65000  -0.63647  -0.63081
  Beta  occ. eigenvalues --   -0.62455  -0.61645  -0.61123  -0.60717  -0.60292
  Beta  occ. eigenvalues --   -0.58928  -0.58730  -0.57776  -0.57405  -0.57369
  Beta  occ. eigenvalues --   -0.57076  -0.56833  -0.56655  -0.56594  -0.56423
  Beta  occ. eigenvalues --   -0.55731  -0.55173  -0.55088  -0.54004  -0.53969
  Beta  occ. eigenvalues --   -0.53637  -0.53397  -0.53120  -0.52709  -0.52610
  Beta  occ. eigenvalues --   -0.52350  -0.52227  -0.52181  -0.51950  -0.51804
  Beta  occ. eigenvalues --   -0.51765  -0.51574  -0.51381  -0.51302  -0.50896
  Beta  occ. eigenvalues --   -0.50753  -0.50477  -0.50276  -0.50214  -0.50026
  Beta  occ. eigenvalues --   -0.49889  -0.49710  -0.49468  -0.49273  -0.49073
  Beta  occ. eigenvalues --   -0.48782  -0.48436  -0.48217  -0.48100  -0.47597
  Beta  occ. eigenvalues --   -0.47424  -0.47230  -0.47007  -0.46716  -0.46227
  Beta  occ. eigenvalues --   -0.45906  -0.45782  -0.45636  -0.45490  -0.44690
  Beta  occ. eigenvalues --   -0.44586  -0.43881  -0.43743  -0.43529  -0.43326
  Beta  occ. eigenvalues --   -0.43068  -0.42772  -0.42539  -0.42008  -0.41715
  Beta  occ. eigenvalues --   -0.41674  -0.40894  -0.39835  -0.39399  -0.37613
  Beta  occ. eigenvalues --   -0.37370  -0.37281  -0.36073  -0.34991  -0.34434
  Beta  occ. eigenvalues --   -0.34152  -0.33719  -0.33463  -0.33319  -0.32646
  Beta  occ. eigenvalues --   -0.32288  -0.28766  -0.28297
  Beta virt. eigenvalues --   -0.18138  -0.17896  -0.13840  -0.13803  -0.12516
  Beta virt. eigenvalues --   -0.11770  -0.09308  -0.08882  -0.08059  -0.07758
  Beta virt. eigenvalues --   -0.06651  -0.06356  -0.05581  -0.04979  -0.04683
  Beta virt. eigenvalues --   -0.04516  -0.04351  -0.03711  -0.03408  -0.03281
  Beta virt. eigenvalues --   -0.03167  -0.02538  -0.02072  -0.01843  -0.01628
  Beta virt. eigenvalues --   -0.01046  -0.00956  -0.00781  -0.00674  -0.00465
  Beta virt. eigenvalues --   -0.00184   0.00342   0.00592   0.00789   0.01099
  Beta virt. eigenvalues --    0.01285   0.01492   0.01804   0.02184   0.02230
  Beta virt. eigenvalues --    0.02617   0.02935   0.03167   0.03315   0.03786
  Beta virt. eigenvalues --    0.03875   0.03920   0.04254   0.04442   0.04644
  Beta virt. eigenvalues --    0.04753   0.04959   0.05045   0.05213   0.05344
  Beta virt. eigenvalues --    0.05566   0.05650   0.05964   0.06044   0.06450
  Beta virt. eigenvalues --    0.06683   0.06745   0.06953   0.07005   0.07451
  Beta virt. eigenvalues --    0.07505   0.07671   0.07803   0.07835   0.08175
  Beta virt. eigenvalues --    0.08396   0.08721   0.08919   0.09096   0.09175
  Beta virt. eigenvalues --    0.09546   0.09665   0.09756   0.09860   0.10148
  Beta virt. eigenvalues --    0.10418   0.10639   0.10758   0.11152   0.11443
  Beta virt. eigenvalues --    0.11519   0.11739   0.11969   0.12187   0.12410
  Beta virt. eigenvalues --    0.12501   0.12761   0.13012   0.13337   0.13573
  Beta virt. eigenvalues --    0.13988   0.14032   0.14184   0.14346   0.14731
  Beta virt. eigenvalues --    0.14806   0.14884   0.15204   0.15397   0.15468
  Beta virt. eigenvalues --    0.15597   0.15746   0.15869   0.16180   0.16425
  Beta virt. eigenvalues --    0.16698   0.16837   0.17010   0.17242   0.17361
  Beta virt. eigenvalues --    0.17714   0.17922   0.18059   0.18348   0.18458
  Beta virt. eigenvalues --    0.18566   0.18782   0.18979   0.19259   0.19452
  Beta virt. eigenvalues --    0.19538   0.20123   0.20224   0.20337   0.20576
  Beta virt. eigenvalues --    0.20708   0.20934   0.21237   0.21287   0.21570
  Beta virt. eigenvalues --    0.21728   0.21953   0.22166   0.22255   0.22744
  Beta virt. eigenvalues --    0.22832   0.23320   0.23360   0.23554   0.23738
  Beta virt. eigenvalues --    0.23992   0.24149   0.24369   0.24568   0.25182
  Beta virt. eigenvalues --    0.25321   0.25491   0.25870   0.26170   0.26244
  Beta virt. eigenvalues --    0.26341   0.26676   0.26837   0.26926   0.27191
  Beta virt. eigenvalues --    0.27520   0.27631   0.27931   0.28134   0.28210
  Beta virt. eigenvalues --    0.28473   0.28642   0.28757   0.28881   0.29317
  Beta virt. eigenvalues --    0.29595   0.29768   0.30029   0.30114   0.30409
  Beta virt. eigenvalues --    0.30482   0.30586   0.30780   0.30940   0.31226
  Beta virt. eigenvalues --    0.31495   0.31551   0.31868   0.32022   0.32269
  Beta virt. eigenvalues --    0.32411   0.32643   0.32779   0.33151   0.33283
  Beta virt. eigenvalues --    0.33390   0.33525   0.33643   0.33904   0.33993
  Beta virt. eigenvalues --    0.34252   0.34581   0.34648   0.34705   0.34839
  Beta virt. eigenvalues --    0.35127   0.35258   0.35457   0.35791   0.36061
  Beta virt. eigenvalues --    0.36175   0.36396   0.36497   0.36572   0.36697
  Beta virt. eigenvalues --    0.36763   0.37101   0.37173   0.37511   0.37669
  Beta virt. eigenvalues --    0.37776   0.37914   0.38271   0.38418   0.38558
  Beta virt. eigenvalues --    0.38718   0.38794   0.38934   0.39032   0.39154
  Beta virt. eigenvalues --    0.39292   0.39384   0.39498   0.39637   0.39751
  Beta virt. eigenvalues --    0.40080   0.40251   0.40549   0.40635   0.40761
  Beta virt. eigenvalues --    0.41021   0.41215   0.41462   0.41652   0.41794
  Beta virt. eigenvalues --    0.41963   0.42009   0.42155   0.42235   0.42540
  Beta virt. eigenvalues --    0.42597   0.42903   0.43174   0.43301   0.43447
  Beta virt. eigenvalues --    0.43574   0.43669   0.43825   0.43890   0.44031
  Beta virt. eigenvalues --    0.44181   0.44436   0.44636   0.44738   0.44974
  Beta virt. eigenvalues --    0.45160   0.45316   0.45507   0.45724   0.46070
  Beta virt. eigenvalues --    0.46106   0.46401   0.46457   0.46693   0.47063
  Beta virt. eigenvalues --    0.47105   0.47216   0.47287   0.47783   0.47839
  Beta virt. eigenvalues --    0.48019   0.48102   0.48528   0.48686   0.48731
  Beta virt. eigenvalues --    0.48856   0.49052   0.49281   0.49525   0.49710
[...]
  1735. RY*(   1) H  75                  0.00016     1.69274   
  1736. RY*(   2) H  75                  0.00003     1.52716   
  1737. RY*(   3) H  75                  0.00004     2.02693   
  1738. RY*(   4) H  75                  0.00001     1.53088   
  1739. RY*(   5) H  75                  0.00001     2.44128   
  1740. RY*(   1) H  76                  0.00021     1.41819   
  1741. RY*(   2) H  76                  0.00004     1.47039   
  1742. RY*(   3) H  76                  0.00003     1.86778   
  1743. RY*(   4) H  76                  0.00002     1.74650   
  1744. RY*(   5) H  76                  0.00000     2.75233   
  1745. RY*(   1) H  77                  0.00035     1.02515   
  1746. RY*(   2) H  77                  0.00004     1.55167   
  1747. RY*(   3) H  77                  0.00005     2.06189   
  1748. RY*(   4) H  77                  0.00003     1.96416   
  1749. RY*(   5) H  77                  0.00000     2.86546   
  1750. RY*(   1) H  78                  0.00081     0.63266   
  1751. RY*(   2) H  78                  0.00014     2.04974   
  1752. RY*(   3) H  78                  0.00012     2.17126   
  1753. RY*(   4) H  78                  0.00006     2.96513   
  1754. RY*(   5) H  78                  0.00000     3.16155   
  1755. RY*(   1) H  79                  0.00016     1.63103   
  1756. RY*(   2) H  79                  0.00004     1.47932   
  1757. RY*(   3) H  79                  0.00004     2.00040   
  1758. RY*(   4) H  79                  0.00001     1.47824   
  1759. RY*(   5) H  79                  0.00001     2.66547   
  1760. RY*(   1) H  80                  0.00023     1.33666   
  1761. RY*(   2) H  80                  0.00005     1.55853   
  1762. RY*(   3) H  80                  0.00003     1.80132   
  1763. RY*(   4) H  80                  0.00002     1.77874   
  1764. RY*(   5) H  80                  0.00000     2.81955   
  1765. RY*(   1) H  81                  0.00031     1.07886   
  1766. RY*(   2) H  81                  0.00006     1.97887   
  1767. RY*(   3) H  81                  0.00002     1.95521   
  1768. RY*(   4) H  81                  0.00003     1.65261   
  1769. RY*(   5) H  81                  0.00001     2.88528   
  1770. RY*(   1) H  82                  0.00023     1.26767   
  1771. RY*(   2) H  82                  0.00014     1.17647   
  1772. RY*(   3) H  82                  0.00004     2.19617   
  1773. RY*(   4) H  82                  0.00001     2.41180   
  1774. RY*(   5) H  82                  0.00001     2.42697   
  1775. RY*(   1) H  83                  0.00034     0.92542   
  1776. RY*(   2) H  83                  0.00008     1.86193   
  1777. RY*(   3) H  83                  0.00005     1.76570   
  1778. RY*(   4) H  83                  0.00003     2.10431   
  1779. RY*(   5) H  83                  0.00000     2.93867   
  1780. RY*(   1) H  84                  0.00032     1.04672   
  1781. RY*(   2) H  84                  0.00007     1.60140   
  1782. RY*(   3) H  84                  0.00004     2.07799   
  1783. RY*(   4) H  84                  0.00002     1.89134   
  1784. RY*(   5) H  84                  0.00000     2.90071   
  1785. RY*(   1) H  85                  0.00021     1.23982   
  1786. RY*(   2) H  85                  0.00008     1.83146   
  1787. RY*(   3) H  85                  0.00003     2.07232   
  1788. RY*(   4) H  85                  0.00001     1.91685   
  1789. RY*(   5) H  85                  0.00000     2.65033   
  1790. RY*(   1) H  86                  0.00078     0.55867   
  1791. RY*(   2) H  86                  0.00013     2.06801   
  1792. RY*(   3) H  86                  0.00013     2.18970   
  1793. RY*(   4) H  86                  0.00005     2.99037   
  1794. RY*(   5) H  86                  0.00000     3.12965   
  1795. RY*(   1) H  87                  0.00031     1.02776   
  1796. RY*(   2) H  87                  0.00009     1.66346   
  1797. RY*(   3) H  87                  0.00004     2.07261   
  1798. RY*(   4) H  87                  0.00001     2.36781   
  1799. RY*(   5) H  87                  0.00001     2.42435   
  1800. RY*(   1) H  88                  0.00028     1.03124   
  1801. RY*(   2) H  88                  0.00009     1.68548   
  1802. RY*(   3) H  88                  0.00003     2.11450   
  1803. RY*(   4) H  88                  0.00001     2.05821   
  1804. RY*(   5) H  88                  0.00001     2.70054   
  1805. RY*(   1) H  89                  0.00028     1.12410   
  1806. RY*(   2) H  89                  0.00007     1.79242   
  1807. RY*(   3) H  89                  0.00003     1.77551   
  1808. RY*(   4) H  89                  0.00003     2.02281   
  1809. RY*(   5) H  89                  0.00000     2.90814   
  1810. RY*(   1) H  90                  0.00028     1.13645   
  1811. RY*(   2) H  90                  0.00007     1.62275   
  1812. RY*(   3) H  90                  0.00004     1.97762   
  1813. RY*(   4) H  90                  0.00003     1.75271   
  1814. RY*(   5) H  90                  0.00000     2.83724   
  1815. RY*(   1) H  91                  0.00012     1.45417   
  1816. RY*(   2) H  91                  0.00006     1.64808   
  1817. RY*(   3) H  91                  0.00003     2.00520   
  1818. RY*(   4) H  91                  0.00000     2.87627   
  1819. RY*(   5) H  91                  0.00001     1.40890   
  1820. RY*(   1) H  92                  0.00031     1.15859   
  1821. RY*(   2) H  92                  0.00007     1.58083   
  1822. RY*(   3) H  92                  0.00003     1.76976   
  1823. RY*(   4) H  92                  0.00003     1.97435   
  1824. RY*(   5) H  92                  0.00000     2.87782   
  1825. RY*(   1) H  93                  0.00027     2.11299   
  1826. RY*(   2) H  93                  0.00020     2.08303   
  1827. RY*(   3) H  93                  0.00010     2.45043   
  1828. RY*(   4) H  93                  0.00008     1.26532   
  1829. RY*(   5) H  93                  0.00000     3.01324   
  1830. RY*(   1) H  94                  0.00032     0.55101   
  1831. RY*(   2) H  94                  0.00018     2.32109   
  1832. RY*(   3) H  94                  0.00008     2.19130   
  1833. RY*(   4) H  94                  0.00002     2.51682   
  1834. RY*(   5) H  94                  0.00001     2.98937   
  1835. RY*(   1) H  95                  0.00029     0.69728   
  1836. RY*(   2) H  95                  0.00017     2.19206   
  1837. RY*(   3) H  95                  0.00012     2.23564   
  1838. RY*(   4) H  95                  0.00002     2.65434   
  1839. RY*(   5) H  95                  0.00000     3.03294   
  1884. BD*(   1) C   7 - C   8          0.00657     0.30540   
  1885. BD*(   1) C   7 - H  90          0.00401     0.31567   
  1886. BD*(   1) C   7 - H  91          0.00166     0.32216   
  1887. BD*(   1) C   7 - H  92          0.00511     0.31771   
  1888. BD*(   1) C   8 - N   9          0.01483     0.32753   
  1889. BD*(   2) C   8 - N   9          0.38625    -0.13435  1894(v),192(v),1887(v)
                                                    1885(v),392(g),417(g),448(v)
                                                    397(g),366(v)
  1890. BD*(   1) C   8 - C  10          0.01011     0.51187   
  1891. BD*(   1) N   9 - C  11          0.00894     0.40653   
  1892. BD*(   1) N   9 - H  93          0.00725     0.30280   
  1893. BD*(   1) C  10 - N  12          0.00859     0.39020   
  1894. BD*(   2) C  10 - N  12          0.33153    -0.10341  1889(v),192(v),195(v),196(v)
                                                    444(g),1976(r),496(g),470(v)
  1895. BD*(   1) C  10 - H  95          0.00713     0.34214   
  1896. BD*(   1) C  11 - N  12          0.00937     0.41058   
  1897. BD*(   1) C  11 - H  94          0.00785     0.30005   
  1898. BD*(   1) N  12 -Fe  13          0.04940     0.24257   
  1899. BD*(   1)Fe  13 - N  18          0.02920     0.32925   
  1900. BD*(   1)Fe  13 - N  29          0.02954     0.32164   
  1901. BD*(   1)Fe  13 - N  37          0.02963     0.32277   
  1902. BD*(   1)Fe  13 - N  45          0.02920     0.33318   
  1903. BD*(   1) C  14 - C  19          0.01009     0.48446   
  1904. BD*(   2) C  14 - C  19          0.19471    -0.04302  1976(v),1923(v),1908(r)
                                                    548(g),1917(r),682(g)
  1905. BD*(   1) C  14 - C  49          0.01028     0.48065   
  1906. BD*(   1) C  14 - H  66          0.00770     0.37835   
  1907. BD*(   1) C  15 - C  22          0.01012     0.49971   
  1908. BD*(   2) C  15 - C  22          0.18662    -0.04067  1941(v),1923(v),1904(r)
                                                    760(g),574(g)
  1909. BD*(   1) C  15 - C  30          0.01022     0.46181   
  1910. BD*(   1) C  15 - H  86          0.00664     0.36004   
  1911. BD*(   1) C  16 - C  33          0.00995     0.46228   
  1912. BD*(   1) C  16 - C  38          0.00950     0.47743   
  1913. BD*(   2) C  16 - C  38          0.18980    -0.04451  1962(v),202(v),1959(v)
                                                    1917(r),601(g),1176(g)
  1914. BD*(   1) C  16 - H  78          0.00656     0.36349   
  1915. BD*(   1) C  17 - C  41          0.01015     0.45456   
  1916. BD*(   1) C  17 - C  46          0.00981     0.49137   
  1917. BD*(   2) C  17 - C  46          0.19163    -0.04639  1979(v),1959(v),1976(v)
                                                    1913(r),1904(r),1384(g)
                                                    627(g),626(g)
  1918. BD*(   1) C  17 - H  70          0.00663     0.35937   
  1919. BD*(   1) N  18 - C  19          0.01550     0.36000   
  1920. BD*(   1) N  18 - C  22          0.01484     0.38941   
  1921. BD*(   1) C  19 - C  20          0.01582     0.41443   
  1922. BD*(   1) C  20 - C  21          0.00976     0.54207   
  1923. BD*(   2) C  20 - C  21          0.11392    -0.01384  1908(v),1904(v),1930(v)
                                                    1927(v),1928(v)
  1924. BD*(   1) C  20 - C  24          0.01229     0.29716   
  1925. BD*(   1) C  21 - C  22          0.01676     0.40528   
  1926. BD*(   1) C  21 - C  23          0.00893     0.27330   
  1927. BD*(   1) C  23 - H  87          0.00351     0.33033   
  1928. BD*(   1) C  23 - H  88          0.00321     0.33131   
  1929. BD*(   1) C  23 - H  89          0.00225     0.33784   
  1930. BD*(   1) C  24 - C  25          0.00840     0.27524   
  1931. BD*(   1) C  24 - H  60          0.00607     0.34622   
  1932. BD*(   1) C  24 - H  61          0.00611     0.34185   
  1933. BD*(   1) C  25 - C  26          0.02971     0.30961   
  1934. BD*(   1) C  25 - H  58          0.00476     0.33337   
  1935. BD*(   1) C  25 - H  59          0.00610     0.32078   
  1936. BD*(   1) C  26 - O  27          0.01730     0.49354   
  1937. BD*(   2) C  26 - O  27          0.12175    -0.04112  1936(g),1935(v),869(g)
                                                    862(g),1930(v)
  1938. BD*(   1) C  26 - O  28          0.03515     0.45031   
  1939. BD*(   1) O  28 - H  57          0.00662     0.32975   
  1940. BD*(   1) N  29 - C  30          0.01387     0.40911   
  1941. BD*(   2) N  29 - C  30          0.32028    -0.08717  1908(v),1945(v),202(v)
                                                    196(v),966(g),940(g),194(v)
  1942. BD*(   1) N  29 - C  33          0.01486     0.38564   
  1943. BD*(   1) C  30 - C  31          0.01679     0.38946   
  1944. BD*(   1) C  31 - C  32          0.00900     0.50781   
  1945. BD*(   2) C  31 - C  32          0.12374    -0.01779  1941(v),202(v),203(v)
                                                    1950(v),1952(v),1953(v)
                                                    1949(v)
  1946. BD*(   1) C  31 - C  34          0.00850     0.28793   
  1947. BD*(   1) C  32 - C  33          0.01501     0.40070   
  1948. BD*(   1) C  32 - C  35          0.01022     0.30374   
  1949. BD*(   1) C  34 - H  83          0.00339     0.33855   
  1950. BD*(   1) C  34 - H  84          0.00380     0.33554   
  1951. BD*(   1) C  34 - H  85          0.00232     0.33717   
  1952. BD*(   1) C  35 - C  36          0.00242     0.30534   
  1953. BD*(   1) C  35 - H  82          0.00579     0.37426   
  1954. BD*(   1) C  36 - H  79          0.00135     0.34022   
  1955. BD*(   1) C  36 - H  80          0.00206     0.33923   
  1956. BD*(   1) C  36 - H  81          0.00276     0.33936   
  1957. BD*(   1) N  37 - C  38          0.01483     0.37144   
  1958. BD*(   1) N  37 - C  41          0.01440     0.37116   
  1959. BD*(   2) N  37 - C  41          0.30686    -0.09031  1917(v),1962(v),1913(v)
                                                    195(v),1252(g),1148(g)
                                                    194(v),1880(r)
  1960. BD*(   1) C  38 - C  39          0.01568     0.40041   
  1961. BD*(   1) C  39 - C  40          0.00966     0.50589   
  1962. BD*(   2) C  39 - C  40          0.12377    -0.01844  1913(v),1959(v),204(v)
                                                    1967(v),1969(v),1970(v)
                                                    1966(v)
  1963. BD*(   1) C  39 - C  42          0.00828     0.28284   
  1964. BD*(   1) C  40 - C  41          0.01378     0.41012   
  1965. BD*(   1) C  40 - C  43          0.01100     0.32155   
  1966. BD*(   1) C  42 - H  71          0.00307     0.33668   
  1967. BD*(   1) C  42 - H  72          0.00374     0.33353   
  1968. BD*(   1) C  42 - H  73          0.00241     0.33743   
  1969. BD*(   1) C  43 - C  44          0.00349     0.29419   
  1970. BD*(   1) C  43 - H  74          0.00604     0.37257   
  1971. BD*(   1) C  44 - H  75          0.00099     0.33607   
  1972. BD*(   1) C  44 - H  76          0.00193     0.33756   
  1973. BD*(   1) C  44 - H  77          0.00269     0.33709   
  1974. BD*(   1) N  45 - C  46          0.01586     0.36056   
  1975. BD*(   1) N  45 - C  49          0.01520     0.36980   
  1976. BD*(   2) N  45 - C  49          0.33417    -0.09822  1904(v),1979(v),1917(v)
                                                    196(v),1460(g),1356(g)
                                                    1894(r),1459(g),548(v)
                                                    194(v),195(v),1880(r),190(r)
  1977. BD*(   1) C  46 - C  47          0.01622     0.40395   
  1978. BD*(   1) C  47 - C  48          0.00997     0.49804   
  1979. BD*(   2) C  47 - C  48          0.11947    -0.02752  1917(v),1976(v),1986(v)
                                                    1984(v),1983(v),1987(v)
  1980. BD*(   1) C  47 - C  50          0.00873     0.27597   
  1981. BD*(   1) C  48 - C  49          0.01607     0.39876   
  1982. BD*(   1) C  48 - C  51          0.01130     0.27342   
  1983. BD*(   1) C  50 - H  67          0.00355     0.32306   
  1984. BD*(   1) C  50 - H  68          0.00409     0.32067   
  1985. BD*(   1) C  50 - H  69          0.00266     0.32962   
  1986. BD*(   1) C  51 - C  52          0.00718     0.25154   
  1987. BD*(   1) C  51 - H  64          0.00559     0.33158   
  1988. BD*(   1) C  51 - H  65          0.00590     0.34225   
  1989. BD*(   1) C  52 - C  53          0.03912     0.26099   
  1990. BD*(   1) C  52 - H  62          0.00579     0.30759   
  1991. BD*(   1) C  52 - H  63          0.00500     0.30510   
  1992. BD*(   1) C  53 - O  54          0.03390     0.39047   
  1993. BD*(   1) C  53 - O  55          0.02431     0.43291   
  1994. BD*(   2) C  53 - O  55          0.09454    -0.06619   
  1995. BD*(   1) O  54 - H  56          0.00692     0.29781   
       -------------------------------
              Total Lewis  176.17516  ( 97.2156%)
        Valence non-Lewis    4.70491  (  2.5962%)
        Rydberg non-Lewis    0.34109  (  0.1882%)
       -------------------------------
            Total unit  2  181.22116  (100.0000%)
           Charge unit  2    2.77884
 1\1\GINC-NODE652\SP\UPBE1PBE\def2TZVP\C42H46Fe1N8O4(1+,6)\ZHARTOVSKA\2
 8-Dec-2022\0\\# PBE1PBE/def2TZVP empiricaldispersion=GD3BJ int=(grid=u
 ltrafine) geom=check pop=nbo\\1gu2_III_H\\1,6\C,0,7.741,3.503,14.891\C
 ,0,9.027,3.472,14.126\N,0,9.297,4.319,13.076\C,0,10.117,2.702,14.195\C
 ,0,10.507,4.054,12.555\N,0,11.039,3.068,13.231\C,0,16.892,-0.274,9.982
 \C,0,16.143999,0.552,10.979\N,0,16.707001,1.622,11.66\C,0,14.864,0.516
 ,11.388\C,0,15.795,2.193,12.429\N,0,14.639,1.534,12.28\Fe,0,12.834,2.2
 72,12.755\C,0,13.059,3.697,9.65\C,0,11.207,-0.399,11.392\C,0,13.062,0.
 642,15.771\C,0,14.138,5.119,14.157\N,0,12.194,1.775,10.922\C,0,12.388,
 2.489,9.727\C,0,11.81,1.765,8.629\C,0,11.25,0.648,9.123\C,0,11.521,0.6
 29,10.54\C,0,10.495,-0.467,8.356\C,0,11.841,2.227,7.162\C,0,13.046,1.6
 56,6.392\C,0,13.086,2.124,4.978\O,0,14.201,2.26,4.429\O,0,12.037,2.373
 ,4.361\N,0,12.262,0.47,13.431\C,0,11.628,-0.511,12.721\C,0,11.497,-1.7
 03,13.549\C,0,12.043,-1.418,14.765\C,0,12.495,-0.047,14.694\C,0,10.865
 ,-3.035,13.109\C,0,12.161,-2.307,16.025\C,0,12.955,-3.58,15.74\N,0,13.
 459,2.785,14.588\C,0,13.44,1.975,15.725\C,0,13.845,2.753,16.875999\C,0
 ,14.127,4.016,16.437\C,0,13.9,4.038,15.019\C,0,13.855,2.166,18.302\C,0
 ,14.506,5.269,17.226999\C,0,15.76236037,5.26706782,18.11759144\N,0,13.
 456,4.028,12.049\C,0,14.006,5.084,12.789\C,0,14.516,6.093,11.899\C,0,1
 4.383,5.614,10.626\C,0,13.61,4.395,10.712\C,0,15.14,7.432,12.331\C,0,1
 5.002,6.242,9.351\C,0,14.241,7.503,8.87\C,0,13.115,7.209,7.901\O,0,12.
 172,8.037,7.738\O,0,13.146,6.139,7.238\H,0,12.36873263,8.95893122,7.55
 650871\H,0,12.07696195,2.7319584,3.4715328\H,0,13.94670405,1.95987592,
 6.88321445\H,0,12.98887598,0.58757197,6.40191928\H,0,11.88901547,3.295
 62232,7.13668486\H,0,10.94016655,1.909106,6.6799808\H,0,13.8331058,8.0
 0098863,9.72471027\H,0,14.93800244,8.15967596,8.39264868\H,0,16.017061
 65,6.51027374,9.55734693\H,0,14.99028728,5.51314018,8.56772089\H,0,13.
 1618523,4.1329459,8.67826311\H,0,16.08323104,7.56007446,11.84231592\H,
 0,14.48597131,8.23425363,12.05982556\H,0,15.28460118,7.43254198,13.391
 18404\H,0,14.44649026,6.04332018,14.59900222\H,0,14.7309458,2.49882418
 ,18.81857238\H,0,12.98367985,2.49451121,18.82904989\H,0,13.85731283,1.
 09737582,18.2478057\H,0,13.89830518,6.14721401,17.16106599\H,0,16.5585
 7529,5.77256829,17.61220933\H,0,15.54809593,5.76947565,19.03768769\H,0
 ,16.05333561,4.25781702,18.32166554\H,0,13.21317257,0.10795988,16.6857
 9397\H,0,13.88672375,-3.54424957,16.26489309\H,0,12.39415423,-4.430765
 81,16.0664193\H,0,13.14043899,-3.65691348,14.68900205\H,0,11.73919763,
 -2.06097406,16.97707878\H,0,11.51503653,-3.84274482,13.37338761\H,0,9.
 92194991,-3.16123136,13.59851217\H,0,10.71849322,-3.02735466,12.049105
 05\H,0,10.58728554,-1.18179612,11.00718288\H,0,11.08418822,-1.3601699,
 8.35381561\H,0,9.5582799,-0.65881147,8.83627472\H,0,10.32123406,-0.151
 8823,7.34832633\H,0,17.82690069,-0.58062057,10.40252886\H,0,16.3139439
 2,-1.13826952,9.72943443\H,0,17.07042231,0.30580735,9.10058698\H,0,17.
 65923464,1.91701376,11.58114588\H,0,15.95423003,3.03955825,13.06373217
 \H,0,14.13318142,-0.19673012,11.06734445\H,0,7.88145868,4.04477169,15.
 80295109\H,0,6.98761083,3.98398187,14.30281534\H,0,7.43453476,2.502409
 16,15.11415249\H,0,10.25750645,1.90974449,14.9003291\H,0,8.67881284,5.
 03257559,12.74637215\H,0,10.95827742,4.56234659,11.72866324\\Version=E
 S64L-G16RevA.03\State=6-A\HF=-3628.6740132\S2=8.818838\S2-1=0.\S2A=8.7
 51207\RMSD=1.803e-09\Dipole=-0.4606207,1.6258272,1.6290808\Quadrupole=
 -5.2047136,20.8250704,-15.6203567,2.6573462,7.8560148,-11.4460789\PG=C
 01 [X(C42H46Fe1N8O4)]\\@


 In the beginning there was nothing, which exploded.
 Job cpu time:       5 days  3 hours  8 minutes  1.3 seconds.
 Elapsed time:       1 days  6 hours 52 minutes  5.4 seconds.
 File lengths (MBytes):  RWF=   3654 Int=      0 D2E=      0 Chk=    305 Scr=      1
 Normal termination of Gaussian 16 at Wed Dec 28 21:33:09 2022.
