 Entering Gaussian System, Link 0=g16
 Input=/net/homes/chemie/zhartovska/work/BioModel/Konrad/1gu2/1gu205/1gu205.com
 Output=/net/homes/chemie/zhartovska/work/BioModel/Konrad/1gu2/1gu205/1gu205.log
 Initial command:
 /afs/math/software/gaussian/g16.A03/g16/l1.exe "/scratch/zhartovska_gaussian.l6DaKqX/Gau-28190.inp" -scrdir="/scratch/zhartovska_gaussian.l6DaKqX/"
 Entering Link 1 = /afs/math/software/gaussian/g16.A03/g16/l1.exe PID=     28191.
  
 Copyright (c) 1988,1990,1992,1993,1995,1998,2003,2009,2016,
            Gaussian, Inc.  All Rights Reserved.
  
 This is part of the Gaussian(R) 16 program.  It is based on
 the Gaussian(R) 09 system (copyright 2009, Gaussian, Inc.),
 the Gaussian(R) 03 system (copyright 2003, Gaussian, Inc.),
 the Gaussian(R) 98 system (copyright 1998, Gaussian, Inc.),
 the Gaussian(R) 94 system (copyright 1995, Gaussian, Inc.),
 the Gaussian 92(TM) system (copyright 1992, Gaussian, Inc.),
 the Gaussian 90(TM) system (copyright 1990, Gaussian, Inc.),
 the Gaussian 88(TM) system (copyright 1988, Gaussian, Inc.),
 the Gaussian 86(TM) system (copyright 1986, Carnegie Mellon
 University), and the Gaussian 82(TM) system (copyright 1983,
 Carnegie Mellon University). Gaussian is a federally registered
 trademark of Gaussian, Inc.
  
 This software contains proprietary and confidential information,
 including trade secrets, belonging to Gaussian, Inc.
  
 This software is provided under written license and may be
 used, copied, transmitted, or stored only in accord with that
 written license.
  
 The following legend is applicable only to US Government
 contracts under FAR:
  
                    RESTRICTED RIGHTS LEGEND
  
 Use, reproduction and disclosure by the US Government is
 subject to restrictions as set forth in subparagraphs (a)
 and (c) of the Commercial Computer Software - Restricted
 Rights clause in FAR 52.227-19.
  
 Gaussian, Inc.
 340 Quinnipiac St., Bldg. 40, Wallingford CT 06492
  
  
 ---------------------------------------------------------------
 Warning -- This program may not be used in any manner that
 competes with the business of Gaussian, Inc. or will provide
 assistance to any competitor of Gaussian, Inc.  The licensee
 of this program is prohibited from giving any competitor of
 Gaussian, Inc. access to this program.  By using this program,
 the user acknowledges that Gaussian, Inc. is engaged in the
 business of creating and licensing software in the field of
 computational chemistry and represents and warrants to the
 licensee that it is not a competitor of Gaussian, Inc. and that
 it will not use this program in any manner prohibited above.
 ---------------------------------------------------------------
  

 Cite this work as:
 Gaussian 16, Revision A.03,
 M. J. Frisch, G. W. Trucks, H. B. Schlegel, G. E. Scuseria, 
 M. A. Robb, J. R. Cheeseman, G. Scalmani, V. Barone, 
 G. A. Petersson, H. Nakatsuji, X. Li, M. Caricato, A. V. Marenich, 
 J. Bloino, B. G. Janesko, R. Gomperts, B. Mennucci, H. P. Hratchian, 
 J. V. Ortiz, A. F. Izmaylov, J. L. Sonnenberg, D. Williams-Young, 
 F. Ding, F. Lipparini, F. Egidi, J. Goings, B. Peng, A. Petrone, 
 T. Henderson, D. Ranasinghe, V. G. Zakrzewski, J. Gao, N. Rega, 
 G. Zheng, W. Liang, M. Hada, M. Ehara, K. Toyota, R. Fukuda, 
 J. Hasegawa, M. Ishida, T. Nakajima, Y. Honda, O. Kitao, H. Nakai, 
 T. Vreven, K. Throssell, J. A. Montgomery, Jr., J. E. Peralta, 
 F. Ogliaro, M. J. Bearpark, J. J. Heyd, E. N. Brothers, K. N. Kudin, 
 V. N. Staroverov, T. A. Keith, R. Kobayashi, J. Normand, 
 K. Raghavachari, A. P. Rendell, J. C. Burant, S. S. Iyengar, 
 J. Tomasi, M. Cossi, J. M. Millam, M. Klene, C. Adamo, R. Cammi, 
 J. W. Ochterski, R. L. Martin, K. Morokuma, O. Farkas, 
 J. B. Foresman, and D. J. Fox, Gaussian, Inc., Wallingford CT, 2016.
 
 ******************************************
 Gaussian 16:  AM64L-G16RevA.03 25-Dec-2016
                31-Oct-2022 
 ******************************************
 %nprocs=12
 Will use up to   12 processors via shared memory.
 %mem=16GB
 %oldchk=1gu2_II_S.chk
 %chk=1gu2_II_Q.chk
 Copying data from "1gu2_II_S.chk" to current chk file "1gu2_II_Q.chk"
 IOpt=  2 FromEx=T IUOpen= 4 IOptOp= 5 NList=   0 IFRang= 0 IUIn= 4 IUOut= 2.
 ----------------------------------------------------------------------
 # PBE1PBE/def2TZVP empiricaldispersion=GD3BJ int=(grid=ultrafine) geom
 =check pop=nbo
 ----------------------------------------------------------------------
 1/29=2,38=1,172=1/1;
 2/12=2,40=1/2;
 3/5=44,7=101,11=2,14=-4,25=1,30=1,74=-13,75=-5,124=41/1,2,3;
 4//1;
 5/5=2,38=5/2;
 6/7=2,8=2,9=2,10=2,28=1,40=1/1,7;
 99/5=1,9=1/99;
 ---------
 1gu2_II_Q
 ---------
 Structure from the checkpoint file:  "1gu2_II_Q.chk"
 Charge =  0 Multiplicity = 5
 Z-Matrix found in chk file.
 C,0,7.741,3.503,14.891
 C,0,9.027,3.472,14.126
 N,0,9.297,4.319,13.076
 C,0,10.117,2.702,14.195
 C,0,10.507,4.054,12.555
 N,0,11.039,3.068,13.231
 C,0,16.892,-0.274,9.982
 C,0,16.143999,0.552,10.979
 N,0,16.707001,1.622,11.66
 C,0,14.864,0.516,11.388
 C,0,15.795,2.193,12.429
 N,0,14.639,1.534,12.28
 Fe,0,12.834,2.272,12.755
 C,0,13.059,3.697,9.65
 C,0,11.207,-0.399,11.392
 C,0,13.062,0.642,15.771
 C,0,14.138,5.119,14.157
 N,0,12.194,1.775,10.922
 C,0,12.388,2.489,9.727
 C,0,11.81,1.765,8.629
 C,0,11.25,0.648,9.123
 C,0,11.521,0.629,10.54
 C,0,10.495,-0.467,8.356
 C,0,11.841,2.227,7.162
 C,0,13.046,1.656,6.392
 C,0,13.086,2.124,4.978
 O,0,14.201,2.26,4.429
 O,0,12.037,2.373,4.361
 N,0,12.262,0.47,13.431
 C,0,11.628,-0.511,12.721
 C,0,11.497,-1.703,13.549
 C,0,12.043,-1.418,14.765
 C,0,12.495,-0.047,14.694
 C,0,10.865,-3.035,13.109
 C,0,12.161,-2.307,16.025
 C,0,12.955,-3.58,15.74
 N,0,13.459,2.785,14.588
 C,0,13.44,1.975,15.725
 C,0,13.845,2.753,16.875999
 C,0,14.127,4.016,16.437
 C,0,13.9,4.038,15.019
 C,0,13.855,2.166,18.302
 C,0,14.506,5.269,17.226999
 C,0,15.76236037,5.26706782,18.11759144
 N,0,13.456,4.028,12.049
 C,0,14.006,5.084,12.789
 C,0,14.516,6.093,11.899
 C,0,14.383,5.614,10.626
 C,0,13.61,4.395,10.712
 C,0,15.14,7.432,12.331
 C,0,15.002,6.242,9.351
 C,0,14.241,7.503,8.87
 C,0,13.115,7.209,7.901
 O,0,12.172,8.037,7.738
 O,0,13.146,6.139,7.238
 H,0,12.36873263,8.95893122,7.55650871
 H,0,12.07696195,2.7319584,3.4715328
 H,0,13.94670405,1.95987592,6.88321445
 H,0,12.98887598,0.58757197,6.40191928
 H,0,11.88901547,3.29562232,7.13668486
 H,0,10.94016655,1.909106,6.6799808
 H,0,13.8331058,8.00098863,9.72471027
 H,0,14.93800244,8.15967596,8.39264868
 H,0,16.01706165,6.51027374,9.55734693
 H,0,14.99028728,5.51314018,8.56772089
 H,0,13.1618523,4.1329459,8.67826311
 H,0,16.08323104,7.56007446,11.84231592
 H,0,14.48597131,8.23425363,12.05982556
 H,0,15.28460118,7.43254198,13.39118404
 H,0,14.44649026,6.04332018,14.59900222
 H,0,14.7309458,2.49882418,18.81857238
 H,0,12.98367985,2.49451121,18.82904989
 H,0,13.85731283,1.09737582,18.2478057
 H,0,13.89830518,6.14721401,17.16106599
 H,0,16.55857529,5.77256829,17.61220933
 H,0,15.54809593,5.76947565,19.03768769
 H,0,16.05333561,4.25781702,18.32166554
 H,0,13.21317257,0.10795988,16.68579397
 H,0,13.88672375,-3.54424957,16.26489309
 H,0,12.39415423,-4.43076581,16.0664193
 H,0,13.14043899,-3.65691348,14.68900205
 H,0,11.73919763,-2.06097406,16.97707878
 H,0,11.51503653,-3.84274482,13.37338761
 H,0,9.92194991,-3.16123136,13.59851217
 H,0,10.71849322,-3.02735466,12.04910505
 H,0,10.58728554,-1.18179612,11.00718288
 H,0,11.08418822,-1.3601699,8.35381561
 H,0,9.5582799,-0.65881147,8.83627472
 H,0,10.32123406,-0.1518823,7.34832633
 H,0,17.82690069,-0.58062057,10.40252886
 H,0,16.31394392,-1.13826952,9.72943443
 H,0,17.07042231,0.30580735,9.10058698
 H,0,17.65923464,1.91701376,11.58114588
 H,0,15.95423003,3.03955825,13.06373217
 H,0,14.13318142,-0.19673012,11.06734445
 H,0,7.88145868,4.04477169,15.80295109
 H,0,6.98761083,3.98398187,14.30281534
 H,0,7.43453476,2.50240916,15.11415249
 H,0,10.25750645,1.90974449,14.9003291
 H,0,8.67881284,5.03257559,12.74637215
 H,0,10.95827742,4.56234659,11.72866324
 Recover connectivity data from disk.
 Stoichiometry    C42H46FeN8O4(5)
 Framework group  C1[X(C42H46FeN8O4)]
 Deg. of freedom   297
 Full point group                 C1      NOp   1
 Largest Abelian subgroup         C1      NOp   1
 Largest concise Abelian subgroup C1      NOp   1
                         Standard orientation:                         
 ---------------------------------------------------------------------
 Center     Atomic      Atomic             Coordinates (Angstroms)
 Number     Number       Type             X           Y           Z
 ---------------------------------------------------------------------
      1          6           0        2.704838    0.332952    5.429888
      2          6           0        1.943968    0.427499    4.144540
      3          7           0        0.679164    0.961893    4.057920
      4          6           0        2.207117    0.042068    2.892359
      5          6           0        0.223858    0.894646    2.795407
      6          7           0        1.148496    0.340614    2.053592
      7          6           0       -1.126458   -2.086096   -4.648514
      8          6           0       -0.401806   -1.237368   -3.653360
      9          7           0       -0.094027    0.098372   -3.869468
     10          6           0        0.039895   -1.497936   -2.410791
     11          6           0        0.495629    0.600977   -2.797628
     12          7           0        0.589738   -0.362080   -1.872165
     13         26           0        0.877555   -0.038764    0.087662
     14          6           0       -2.518303    0.397594    0.091212
     15          6           0        0.437434   -3.332987    0.858068
     16          6           0        4.235937   -0.565323   -0.411482
     17          6           0        1.312088    3.339739   -0.322616
     18          7           0       -0.698353   -1.215969    0.471330
     19          6           0       -2.058724   -0.867290    0.414153
     20          6           0       -2.867787   -2.015415    0.715964
     21          6           0       -2.041923   -3.042121    0.978924
     22          6           0       -0.694765   -2.561899    0.788550
     23          6           0       -2.411889   -4.497193    1.362892
     24          6           0       -4.406015   -2.022993    0.732984
     25          6           0       -5.006041   -2.445804   -0.620591
     26          6           0       -6.495871   -2.429596   -0.607788
     27          8           0       -7.095849   -2.164545   -1.672164
     28          8           0       -7.125207   -2.673094    0.435158
     29          7           0        2.083992   -1.640650    0.186837
     30          6           0        1.723997   -2.923093    0.493696
     31          6           0        2.876953   -3.801275    0.341717
     32          6           0        3.931993   -3.028008   -0.041617
     33          6           0        3.435965   -1.672165   -0.109678
     34          6           0        2.880107   -5.323393    0.566207
     35          6           0        5.397096   -3.431975   -0.328196
     36          6           0        5.484299   -4.464017   -1.450459
     37          7           0        2.449115    1.148970   -0.277264
     38          6           0        3.777579    0.743020   -0.417335
     39          6           0        4.626398    1.909068   -0.535429
     40          6           0        3.817802    3.009708   -0.488775
     41          6           0        2.467372    2.543957   -0.339944
     42          6           0        6.161978    1.801312   -0.627801
     43          6           0        4.180108    4.495045   -0.472775
     44          6           0        4.988882    5.102893   -1.633812
     45          7           0       -0.345187    1.525766   -0.073598
     46          6           0        0.023452    2.862786   -0.277852
     47          6           0       -1.145517    3.658723   -0.542951
     48          6           0       -2.209579    2.803940   -0.612085
     49          6           0       -1.734826    1.503807   -0.193576
     50          6           0       -1.158150    5.182662   -0.758284
     51          6           0       -3.633873    3.166254   -1.105323
     52          6           0       -4.448366    3.967403   -0.058726
     53          6           0       -5.246706    3.101184    0.892900
     54          8           0       -5.621650    3.551733    2.014427
     55          8           0       -5.556423    1.933197    0.538905
     56          1           0       -6.079195    4.394189    2.064628
     57          1           0       -8.082340   -2.599820    0.446420
     58          1           0       -4.658681   -1.774943   -1.378342
     59          1           0       -4.672236   -3.435320   -0.853687
     60          1           0       -4.754255   -1.040391    0.974071
     61          1           0       -4.740378   -2.703958    1.487562
     62          1           0       -3.771205    4.566671    0.513314
     63          1           0       -5.123816    4.615660   -0.576828
     64          1           0       -3.550866    3.750683   -1.997765
     65          1           0       -4.159798    2.262548   -1.332517
     66          1           0       -3.579085    0.533861    0.058433
     67          1           0       -1.692746    5.411540   -1.656461
     68          1           0       -1.637678    5.656333    0.072732
     69          1           0       -0.152806    5.539555   -0.840824
     70          1           0        1.444302    4.401280   -0.346084
     71          1           0        6.525556    2.499452   -1.352584
     72          1           0        6.592993    2.021015    0.326587
     73          1           0        6.432843    0.808702   -0.921498
     74          1           0        3.871717    5.112174    0.345116
     75          1           0        4.329170    5.631673   -2.289611
     76          1           0        5.720787    5.778674   -1.243255
     77          1           0        5.478629    4.320667   -2.175265
     78          1           0        5.263910   -0.738858   -0.652433
     79          1           0        5.943688   -4.019758   -2.308652
     80          1           0        6.070151   -5.297623   -1.123691
     81          1           0        4.500155   -4.797772   -1.705350
     82          1           0        6.243536   -3.037776    0.194343
     83          1           0        3.354955   -5.805204   -0.262815
     84          1           0        3.414930   -5.550289    1.464752
     85          1           0        1.872629   -5.673234    0.652805
     86          1           0        0.326988   -4.333116    1.221998
     87          1           0       -2.163291   -5.153414    0.555135
     88          1           0       -1.866275   -4.785079    2.237150
     89          1           0       -3.461548   -4.557755    1.561507
     90          1           0       -0.663262   -1.985191   -5.607768
     91          1           0       -1.087638   -3.109800   -4.339610
     92          1           0       -2.147033   -1.770642   -4.710294
     93          1           0       -0.288815    0.604834   -4.709441
     94          1           0        0.839748    1.608222   -2.688361
     95          1           0       -0.026996   -2.445197   -1.917717
     96          1           0        3.405700    1.139255    5.489620
     97          1           0        2.023431    0.390973    6.252821
     98          1           0        3.229349   -0.598967    5.466152
     99          1           0        3.113797   -0.433074    2.580798
    100          1           0        0.169557    1.346811    4.827425
    101          1           0       -0.731437    1.235811    2.454938
 ---------------------------------------------------------------------
 Rotational constants (GHZ):           0.0640035           0.0431224           0.0346215
 Standard basis: def2TZVP (5D, 7F)
 There are  2272 symmetry adapted cartesian basis functions of A   symmetry.
 There are  1995 symmetry adapted basis functions of A   symmetry.
  1995 basis functions,  3224 primitive gaussians,  2272 cartesian basis functions
   208 alpha electrons      204 beta electrons
       nuclear repulsion energy      8998.7561913902 Hartrees.
 NAtoms=  101 NActive=  101 NUniq=  101 SFac= 1.00D+00 NAtFMM=   60 NAOKFM=T Big=T
 Integral buffers will be    131072 words long.
 Raffenetti 2 integral format.
 Two-electron integral symmetry is turned on.
 Nuclear repulsion after empirical dispersion term =     8998.6110805693 Hartrees.
 One-electron integrals computed using PRISM.
   1 Symmetry operations used in ECPInt.
 ECPInt:  NShTT=  314821 NPrTT=  970913 LenC2=  229571 LenP2D=  456403.
 LDataN:  DoStor=T MaxTD1= 6 Len=  172
 NBasis=  1995 RedAO= T EigKep=  3.29D-06  NBF=  1995
 NBsUse=  1995 1.00D-06 EigRej= -1.00D+00 NBFU=  1995
 ExpMin= 4.20D-02 ExpMax= 3.01D+05 ExpMxC= 2.91D+03 IAcc=3 IRadAn=         5 AccDes= 0.00D+00
 Harris functional with IExCor= 1009 and IRadAn=       5 diagonalized for initial guess.
 HarFok:  IExCor= 1009 AccDes= 0.00D+00 IRadAn=         5 IDoV= 1 UseB2=F ITyADJ=14
 ICtDFT=  3500011 ScaDFX=  1.000000  1.000000  1.000000  1.000000
 FoFCou: FMM=F IPFlag=           0 FMFlag=      100000 FMFlg1=        2001
         NFxFlg=           0 DoJE=T BraDBF=F KetDBF=T FulRan=T
         wScrn=  0.000000 ICntrl=       500 IOpCl=  0 I1Cent=   200000004 NGrid=           0
         NMat0=    1 NMatS0=      1 NMatT0=    0 NMatD0=    1 NMtDS0=    0 NMtDT0=    0
 Petite list used in FoFCou.
 Initial guess <Sx>= 0.0000 <Sy>= 0.0000 <Sz>= 2.0000 <S**2>= 6.0000 S= 2.0000
 Requested convergence on RMS density matrix=1.00D-08 within 128 cycles.
 Requested convergence on MAX density matrix=1.00D-06.
 Requested convergence on             energy=1.00D-06.
 No special actions if energy rises.
 EnCoef did   100 forward-backward iterations
 EnCoef did     4 forward-backward iterations
 EnCoef did    14 forward-backward iterations
 EnCoef did    10 forward-backward iterations
 EnCoef did   100 forward-backward iterations
 Restarting incremental Fock formation.
 Rare condition: small coef for last iteration:  0.000D+00
 Restarting incremental Fock formation.
 Restarting incremental Fock formation.
 Restarting incremental Fock formation.
 SCF Done:  E(UPBE1PBE) =  -3628.82302650     A.U. after   95 cycles
            NFock= 95  Conv=0.18D-08     -V/T= 2.0034
 <Sx>= 0.0000 <Sy>= 0.0000 <Sz>= 2.0000 <S**2>= 6.3850 S= 2.0759
 <L.S>= 0.000000000000E+00
 Annihilation of the first spin contaminant:
 S**2 before annihilation     6.3850,   after     6.0155
 Hyperfine terms turned off by default for NAtoms > 100.

 **********************************************************************

            Population analysis using the SCF density.

 **********************************************************************

 Orbital symmetries:
 Alpha Orbitals:
       Occupied  (A) (A) (A) (A) (A) (A) (A) (A) (A) (A) (A) (A)
                 (A) (A) (A) (A) (A) (A) (A) (A) (A) (A) (A) (A)
                 (A) (A) (A) (A) (A) (A) (A) (A) (A) (A) (A) (A)
                 (A) (A) (A) (A) (A) (A) (A) (A) (A) (A) (A) (A)
                 (A) (A) (A) (A) (A) (A) (A) (A) (A) (A) (A) (A)
                 (A) (A) (A) (A) (A) (A) (A) (A) (A) (A) (A) (A)
                 (A) (A) (A) (A) (A) (A) (A) (A) (A) (A) (A) (A)
                 (A) (A) (A) (A) (A) (A) (A) (A) (A) (A) (A) (A)
                 (A) (A) (A) (A) (A) (A) (A) (A) (A) (A) (A) (A)
                 (A) (A) (A) (A) (A) (A) (A) (A) (A) (A) (A) (A)
                 (A) (A) (A) (A) (A) (A) (A) (A) (A) (A) (A) (A)
                 (A) (A) (A) (A) (A) (A) (A) (A) (A) (A) (A) (A)
                 (A) (A) (A) (A) (A) (A) (A) (A) (A) (A) (A) (A)
                 (A) (A) (A) (A) (A) (A) (A) (A) (A) (A) (A) (A)
                 (A) (A) (A) (A) (A) (A) (A) (A) (A) (A) (A) (A)
                 (A) (A) (A) (A) (A) (A) (A) (A) (A) (A) (A) (A)
                 (A) (A) (A) (A) (A) (A) (A) (A) (A) (A) (A) (A)
                 (A) (A) (A) (A)
       Virtual   (A) (A) (A) (A) (A) (A) (A) (A) (A) (A) (A) (A)
                 (A) (A) (A) (A) (A) (A) (A) (A) (A) (A) (A) (A)
                 (A) (A) (A) (A) (A) (A) (A) (A) (A) (A) (A) (A)
                 (A) (A) (A) (A) (A) (A) (A) (A) (A) (A) (A) (A)
                 (A) (A) (A) (A) (A) (A) (A) (A) (A) (A) (A) (A)
                 (A) (A) (A) (A) (A) (A) (A) (A) (A) (A) (A) (A)
                 (A) (A) (A) (A) (A) (A) (A) (A) (A) (A) (A) (A)
                 (A) (A) (A) (A) (A) (A) (A) (A) (A) (A) (A) (A)
                 (A) (A) (A) (A) (A) (A) (A) (A) (A) (A) (A) (A)
                 (A) (A) (A) (A) (A) (A) (A) (A) (A) (A) (A) (A)
                 (A) (A) (A) (A) (A) (A) (A) (A) (A) (A) (A) (A)
                 (A) (A) (A) (A) (A) (A) (A) (A) (A) (A) (A) (A)
                 (A) (A) (A) (A) (A) (A) (A) (A) (A) (A) (A) (A)
                 (A) (A) (A) (A) (A) (A) (A) (A) (A) (A) (A) (A)
                 (A) (A) (A) (A) (A) (A) (A) (A) (A) (A) (A) (A)
                 (A) (A) (A) (A) (A) (A) (A) (A) (A) (A) (A) (A)
                 (A) (A) (A) (A) (A) (A) (A) (A) (A) (A) (A) (A)
                 (A) (A) (A) (A) (A) (A) (A) (A) (A) (A) (A) (A)
                 (A) (A) (A) (A) (A) (A) (A) (A) (A) (A) (A) (A)
                 (A) (A) (A) (A) (A) (A) (A) (A) (A) (A) (A) (A)
                 (A) (A) (A) (A) (A) (A) (A) (A) (A) (A) (A) (A)
                 (A) (A) (A) (A) (A) (A) (A) (A) (A) (A) (A) (A)
                 (A) (A) (A) (A) (A) (A) (A) (A) (A) (A) (A) (A)
                 (A) (A) (A) (A) (A) (A) (A) (A) (A) (A) (A) (A)
                 (A) (A) (A) (A) (A) (A) (A) (A) (A) (A) (A) (A)
                 (A) (A) (A) (A) (A) (A) (A) (A) (A) (A) (A) (A)
                 (A) (A) (A) (A) (A) (A) (A) (A) (A) (A) (A) (A)
                 (A) (A) (A) (A) (A) (A) (A) (A) (A) (A) (A) (A)
                 (A) (A) (A) (A) (A) (A) (A) (A) (A) (A) (A) (A)
                 (A) (A) (A) (A) (A) (A) (A) (A) (A) (A) (A) (A)
                 (A) (A) (A) (A) (A) (A) (A) (A) (A) (A) (A) (A)
                 (A) (A) (A) (A) (A) (A) (A) (A) (A) (A) (A) (A)
                 (A) (A) (A) (A) (A) (A) (A) (A) (A) (A) (A) (A)
                 (A) (A) (A) (A) (A) (A) (A) (A) (A) (A) (A) (A)
                 (A) (A) (A) (A) (A) (A) (A) (A) (A) (A) (A) (A)
                 (A) (A) (A) (A) (A) (A) (A) (A) (A) (A) (A) (A)
                 (A) (A) (A) (A) (A) (A) (A) (A) (A) (A) (A) (A)
                 (A) (A) (A) (A) (A) (A) (A) (A) (A) (A) (A) (A)
                 (A) (A) (A) (A) (A) (A) (A) (A) (A) (A) (A) (A)
                 (A) (A) (A) (A) (A) (A) (A) (A) (A) (A) (A) (A)
                 (A) (A) (A) (A) (A) (A) (A) (A) (A) (A) (A) (A)
                 (A) (A) (A) (A) (A) (A) (A) (A) (A) (A) (A) (A)
                 (A) (A) (A) (A) (A) (A) (A) (A) (A) (A) (A) (A)
                 (A) (A) (A) (A) (A) (A) (A) (A) (A) (A) (A) (A)
                 (A) (A) (A) (A) (A) (A) (A) (A) (A) (A) (A) (A)
                 (A) (A) (A) (A) (A) (A) (A) (A) (A) (A) (A) (A)
                 (A) (A) (A) (A) (A) (A) (A) (A) (A) (A) (A) (A)
                 (A) (A) (A) (A) (A) (A) (A) (A) (A) (A) (A) (A)
                 (A) (A) (A) (A) (A) (A) (A) (A) (A) (A) (A) (A)
                 (A) (A) (A) (A) (A) (A) (A) (A) (A) (A) (A) (A)
                 (A) (A) (A) (A) (A) (A) (A) (A) (A) (A) (A) (A)
                 (A) (A) (A) (A) (A) (A) (A) (A) (A) (A) (A) (A)
                 (A) (A) (A) (A) (A) (A) (A) (A) (A) (A) (A) (A)
                 (A) (A) (A) (A) (A) (A) (A) (A) (A) (A) (A) (A)
                 (A) (A) (A) (A) (A) (A) (A) (A) (A) (A) (A) (A)
                 (A) (A) (A) (A) (A) (A) (A) (A) (A) (A) (A) (A)
                 (A) (A) (A) (A) (A) (A) (A) (A) (A) (A) (A) (A)
                 (A) (A) (A) (A) (A) (A) (A) (A) (A) (A) (A) (A)
                 (A) (A) (A) (A) (A) (A) (A) (A) (A) (A) (A) (A)
                 (A) (A) (A) (A) (A) (A) (A) (A) (A) (A) (A) (A)
                 (A) (A) (A) (A) (A) (A) (A) (A) (A) (A) (A) (A)
                 (A) (A) (A) (A) (A) (A) (A) (A) (A) (A) (A) (A)
                 (A) (A) (A) (A) (A) (A) (A) (A) (A) (A) (A) (A)
                 (A) (A) (A) (A) (A) (A) (A) (A) (A) (A) (A) (A)
                 (A) (A) (A) (A) (A) (A) (A) (A) (A) (A) (A) (A)
                 (A) (A) (A) (A) (A) (A) (A) (A) (A) (A) (A) (A)
                 (A) (A) (A) (A) (A) (A) (A) (A) (A) (A) (A) (A)
                 (A) (A) (A) (A) (A) (A) (A) (A) (A) (A) (A) (A)
                 (A) (A) (A) (A) (A) (A) (A) (A) (A) (A) (A) (A)
                 (A) (A) (A) (A) (A) (A) (A) (A) (A) (A) (A) (A)
                 (A) (A) (A) (A) (A) (A) (A) (A) (A) (A) (A) (A)
                 (A) (A) (A) (A) (A) (A) (A) (A) (A) (A) (A) (A)
                 (A) (A) (A) (A) (A) (A) (A) (A) (A) (A) (A) (A)
                 (A) (A) (A) (A) (A) (A) (A) (A) (A) (A) (A) (A)
                 (A) (A) (A) (A) (A) (A) (A) (A) (A) (A) (A) (A)
                 (A) (A) (A) (A) (A) (A) (A) (A) (A) (A) (A) (A)
                 (A) (A) (A) (A) (A) (A) (A) (A) (A) (A) (A) (A)
                 (A) (A) (A) (A) (A) (A) (A) (A) (A) (A) (A) (A)
                 (A) (A) (A) (A) (A) (A) (A) (A) (A) (A) (A) (A)
                 (A) (A) (A) (A) (A) (A) (A) (A) (A) (A) (A) (A)
                 (A) (A) (A) (A) (A) (A) (A) (A) (A) (A) (A) (A)
                 (A) (A) (A) (A) (A) (A) (A) (A) (A) (A) (A) (A)
                 (A) (A) (A) (A) (A) (A) (A) (A) (A) (A) (A) (A)
                 (A) (A) (A) (A) (A) (A) (A) (A) (A) (A) (A) (A)
                 (A) (A) (A) (A) (A) (A) (A) (A) (A) (A) (A) (A)
                 (A) (A) (A) (A) (A) (A) (A) (A) (A) (A) (A) (A)
                 (A) (A) (A) (A) (A) (A) (A) (A) (A) (A) (A) (A)
                 (A) (A) (A) (A) (A) (A) (A) (A) (A) (A) (A) (A)
                 (A) (A) (A) (A) (A) (A) (A) (A) (A) (A) (A) (A)
                 (A) (A) (A) (A) (A) (A) (A) (A) (A) (A) (A) (A)
                 (A) (A) (A) (A) (A) (A) (A) (A) (A) (A) (A) (A)
                 (A) (A) (A) (A) (A) (A) (A) (A) (A) (A) (A) (A)
                 (A) (A) (A) (A) (A) (A) (A) (A) (A) (A) (A) (A)
                 (A) (A) (A) (A) (A) (A) (A) (A) (A) (A) (A) (A)
                 (A) (A) (A) (A) (A) (A) (A) (A) (A) (A) (A) (A)
                 (A) (A) (A) (A) (A) (A) (A) (A) (A) (A) (A) (A)
                 (A) (A) (A) (A) (A) (A) (A) (A) (A) (A) (A) (A)
                 (A) (A) (A) (A) (A) (A) (A) (A) (A) (A) (A) (A)
                 (A) (A) (A) (A) (A) (A) (A) (A) (A) (A) (A) (A)
                 (A) (A) (A) (A) (A) (A) (A) (A) (A) (A) (A) (A)
                 (A) (A) (A) (A) (A) (A) (A) (A) (A) (A) (A) (A)
                 (A) (A) (A) (A) (A) (A) (A) (A) (A) (A) (A) (A)
                 (A) (A) (A) (A) (A) (A) (A) (A) (A) (A) (A) (A)
                 (A) (A) (A) (A) (A) (A) (A) (A) (A) (A) (A) (A)
                 (A) (A) (A) (A) (A) (A) (A) (A) (A) (A) (A) (A)
                 (A) (A) (A) (A) (A) (A) (A) (A) (A) (A) (A) (A)
                 (A) (A) (A) (A) (A) (A) (A) (A) (A) (A) (A) (A)
                 (A) (A) (A) (A) (A) (A) (A) (A) (A) (A) (A) (A)
                 (A) (A) (A) (A) (A) (A) (A) (A) (A) (A) (A) (A)
                 (A) (A) (A) (A) (A) (A) (A) (A) (A) (A) (A) (A)
                 (A) (A) (A) (A) (A) (A) (A) (A) (A) (A) (A) (A)
                 (A) (A) (A) (A) (A) (A) (A) (A) (A) (A) (A) (A)
                 (A) (A) (A) (A) (A) (A) (A) (A) (A) (A) (A) (A)
                 (A) (A) (A) (A) (A) (A) (A) (A) (A) (A) (A) (A)
                 (A) (A) (A) (A) (A) (A) (A) (A) (A) (A) (A) (A)
                 (A) (A) (A) (A) (A) (A) (A) (A) (A) (A) (A) (A)
                 (A) (A) (A) (A) (A) (A) (A) (A) (A) (A) (A) (A)
                 (A) (A) (A) (A) (A) (A) (A) (A) (A) (A) (A) (A)
                 (A) (A) (A) (A) (A) (A) (A) (A) (A) (A) (A) (A)
                 (A) (A) (A) (A) (A) (A) (A) (A) (A) (A) (A) (A)
                 (A) (A) (A) (A) (A) (A) (A) (A) (A) (A) (A) (A)
                 (A) (A) (A) (A) (A) (A) (A) (A) (A) (A) (A) (A)
                 (A) (A) (A) (A) (A) (A) (A) (A) (A) (A) (A) (A)
                 (A) (A) (A) (A) (A) (A) (A) (A) (A) (A) (A) (A)
                 (A) (A) (A) (A) (A) (A) (A) (A) (A) (A) (A) (A)
                 (A) (A) (A) (A) (A) (A) (A) (A) (A) (A) (A) (A)
                 (A) (A) (A) (A) (A) (A) (A) (A) (A) (A) (A) (A)
                 (A) (A) (A) (A) (A) (A) (A) (A) (A) (A) (A) (A)
                 (A) (A) (A) (A) (A) (A) (A) (A) (A) (A) (A) (A)
                 (A) (A) (A) (A) (A) (A) (A) (A) (A) (A) (A) (A)
                 (A) (A) (A) (A) (A) (A) (A) (A) (A) (A) (A) (A)
                 (A) (A) (A) (A) (A) (A) (A) (A) (A) (A) (A) (A)
                 (A) (A) (A) (A) (A) (A) (A) (A) (A) (A) (A) (A)
                 (A) (A) (A) (A) (A) (A) (A) (A) (A) (A) (A) (A)
                 (A) (A) (A) (A) (A) (A) (A) (A) (A) (A) (A) (A)
                 (A) (A) (A) (A) (A) (A) (A) (A) (A) (A) (A) (A)
                 (A) (A) (A) (A) (A) (A) (A) (A) (A) (A) (A) (A)
                 (A) (A) (A) (A) (A) (A) (A) (A) (A) (A) (A) (A)
                 (A) (A) (A) (A) (A) (A) (A) (A) (A) (A) (A) (A)
                 (A) (A) (A) (A) (A) (A) (A) (A) (A) (A) (A) (A)
                 (A) (A) (A) (A) (A) (A) (A) (A) (A) (A) (A) (A)
                 (A) (A) (A) (A) (A) (A) (A) (A) (A) (A) (A) (A)
                 (A) (A) (A) (A) (A) (A) (A) (A) (A) (A) (A) (A)
                 (A) (A) (A) (A) (A) (A) (A) (A) (A) (A) (A) (A)
                 (A) (A) (A) (A) (A) (A) (A) (A) (A) (A) (A) (A)
                 (A) (A) (A) (A) (A) (A) (A) (A) (A) (A) (A) (A)
                 (A) (A) (A) (A) (A) (A) (A) (A) (A) (A) (A) (A)
                 (A) (A) (A) (A) (A) (A) (A) (A) (A) (A) (A) (A)
                 (A) (A) (A) (A) (A) (A) (A) (A) (A) (A) (A)
 Beta  Orbitals:
       Occupied  (A) (A) (A) (A) (A) (A) (A) (A) (A) (A) (A) (A)
                 (A) (A) (A) (A) (A) (A) (A) (A) (A) (A) (A) (A)
                 (A) (A) (A) (A) (A) (A) (A) (A) (A) (A) (A) (A)
                 (A) (A) (A) (A) (A) (A) (A) (A) (A) (A) (A) (A)
                 (A) (A) (A) (A) (A) (A) (A) (A) (A) (A) (A) (A)
                 (A) (A) (A) (A) (A) (A) (A) (A) (A) (A) (A) (A)
                 (A) (A) (A) (A) (A) (A) (A) (A) (A) (A) (A) (A)
                 (A) (A) (A) (A) (A) (A) (A) (A) (A) (A) (A) (A)
                 (A) (A) (A) (A) (A) (A) (A) (A) (A) (A) (A) (A)
                 (A) (A) (A) (A) (A) (A) (A) (A) (A) (A) (A) (A)
                 (A) (A) (A) (A) (A) (A) (A) (A) (A) (A) (A) (A)
                 (A) (A) (A) (A) (A) (A) (A) (A) (A) (A) (A) (A)
                 (A) (A) (A) (A) (A) (A) (A) (A) (A) (A) (A) (A)
                 (A) (A) (A) (A) (A) (A) (A) (A) (A) (A) (A) (A)
                 (A) (A) (A) (A) (A) (A) (A) (A) (A) (A) (A) (A)
                 (A) (A) (A) (A) (A) (A) (A) (A) (A) (A) (A) (A)
                 (A) (A) (A) (A) (A) (A) (A) (A) (A) (A) (A) (A)
       Virtual   (A) (A) (A) (A) (A) (A) (A) (A) (A) (A) (A) (A)
                 (A) (A) (A) (A) (A) (A) (A) (A) (A) (A) (A) (A)
                 (A) (A) (A) (A) (A) (A) (A) (A) (A) (A) (A) (A)
                 (A) (A) (A) (A) (A) (A) (A) (A) (A) (A) (A) (A)
                 (A) (A) (A) (A) (A) (A) (A) (A) (A) (A) (A) (A)
                 (A) (A) (A) (A) (A) (A) (A) (A) (A) (A) (A) (A)
                 (A) (A) (A) (A) (A) (A) (A) (A) (A) (A) (A) (A)
                 (A) (A) (A) (A) (A) (A) (A) (A) (A) (A) (A) (A)
                 (A) (A) (A) (A) (A) (A) (A) (A) (A) (A) (A) (A)
                 (A) (A) (A) (A) (A) (A) (A) (A) (A) (A) (A) (A)
                 (A) (A) (A) (A) (A) (A) (A) (A) (A) (A) (A) (A)
                 (A) (A) (A) (A) (A) (A) (A) (A) (A) (A) (A) (A)
                 (A) (A) (A) (A) (A) (A) (A) (A) (A) (A) (A) (A)
                 (A) (A) (A) (A) (A) (A) (A) (A) (A) (A) (A) (A)
                 (A) (A) (A) (A) (A) (A) (A) (A) (A) (A) (A) (A)
                 (A) (A) (A) (A) (A) (A) (A) (A) (A) (A) (A) (A)
                 (A) (A) (A) (A) (A) (A) (A) (A) (A) (A) (A) (A)
                 (A) (A) (A) (A) (A) (A) (A) (A) (A) (A) (A) (A)
                 (A) (A) (A) (A) (A) (A) (A) (A) (A) (A) (A) (A)
                 (A) (A) (A) (A) (A) (A) (A) (A) (A) (A) (A) (A)
                 (A) (A) (A) (A) (A) (A) (A) (A) (A) (A) (A) (A)
                 (A) (A) (A) (A) (A) (A) (A) (A) (A) (A) (A) (A)
                 (A) (A) (A) (A) (A) (A) (A) (A) (A) (A) (A) (A)
                 (A) (A) (A) (A) (A) (A) (A) (A) (A) (A) (A) (A)
                 (A) (A) (A) (A) (A) (A) (A) (A) (A) (A) (A) (A)
                 (A) (A) (A) (A) (A) (A) (A) (A) (A) (A) (A) (A)
                 (A) (A) (A) (A) (A) (A) (A) (A) (A) (A) (A) (A)
                 (A) (A) (A) (A) (A) (A) (A) (A) (A) (A) (A) (A)
                 (A) (A) (A) (A) (A) (A) (A) (A) (A) (A) (A) (A)
                 (A) (A) (A) (A) (A) (A) (A) (A) (A) (A) (A) (A)
                 (A) (A) (A) (A) (A) (A) (A) (A) (A) (A) (A) (A)
                 (A) (A) (A) (A) (A) (A) (A) (A) (A) (A) (A) (A)
                 (A) (A) (A) (A) (A) (A) (A) (A) (A) (A) (A) (A)
                 (A) (A) (A) (A) (A) (A) (A) (A) (A) (A) (A) (A)
                 (A) (A) (A) (A) (A) (A) (A) (A) (A) (A) (A) (A)
                 (A) (A) (A) (A) (A) (A) (A) (A) (A) (A) (A) (A)
                 (A) (A) (A) (A) (A) (A) (A) (A) (A) (A) (A) (A)
                 (A) (A) (A) (A) (A) (A) (A) (A) (A) (A) (A) (A)
                 (A) (A) (A) (A) (A) (A) (A) (A) (A) (A) (A) (A)
                 (A) (A) (A) (A) (A) (A) (A) (A) (A) (A) (A) (A)
                 (A) (A) (A) (A) (A) (A) (A) (A) (A) (A) (A) (A)
                 (A) (A) (A) (A) (A) (A) (A) (A) (A) (A) (A) (A)
                 (A) (A) (A) (A) (A) (A) (A) (A) (A) (A) (A) (A)
                 (A) (A) (A) (A) (A) (A) (A) (A) (A) (A) (A) (A)
                 (A) (A) (A) (A) (A) (A) (A) (A) (A) (A) (A) (A)
                 (A) (A) (A) (A) (A) (A) (A) (A) (A) (A) (A) (A)
                 (A) (A) (A) (A) (A) (A) (A) (A) (A) (A) (A) (A)
                 (A) (A) (A) (A) (A) (A) (A) (A) (A) (A) (A) (A)
                 (A) (A) (A) (A) (A) (A) (A) (A) (A) (A) (A) (A)
                 (A) (A) (A) (A) (A) (A) (A) (A) (A) (A) (A) (A)
                 (A) (A) (A) (A) (A) (A) (A) (A) (A) (A) (A) (A)
                 (A) (A) (A) (A) (A) (A) (A) (A) (A) (A) (A) (A)
                 (A) (A) (A) (A) (A) (A) (A) (A) (A) (A) (A) (A)
                 (A) (A) (A) (A) (A) (A) (A) (A) (A) (A) (A) (A)
                 (A) (A) (A) (A) (A) (A) (A) (A) (A) (A) (A) (A)
                 (A) (A) (A) (A) (A) (A) (A) (A) (A) (A) (A) (A)
                 (A) (A) (A) (A) (A) (A) (A) (A) (A) (A) (A) (A)
                 (A) (A) (A) (A) (A) (A) (A) (A) (A) (A) (A) (A)
                 (A) (A) (A) (A) (A) (A) (A) (A) (A) (A) (A) (A)
                 (A) (A) (A) (A) (A) (A) (A) (A) (A) (A) (A) (A)
                 (A) (A) (A) (A) (A) (A) (A) (A) (A) (A) (A) (A)
                 (A) (A) (A) (A) (A) (A) (A) (A) (A) (A) (A) (A)
                 (A) (A) (A) (A) (A) (A) (A) (A) (A) (A) (A) (A)
                 (A) (A) (A) (A) (A) (A) (A) (A) (A) (A) (A) (A)
                 (A) (A) (A) (A) (A) (A) (A) (A) (A) (A) (A) (A)
                 (A) (A) (A) (A) (A) (A) (A) (A) (A) (A) (A) (A)
                 (A) (A) (A) (A) (A) (A) (A) (A) (A) (A) (A) (A)
                 (A) (A) (A) (A) (A) (A) (A) (A) (A) (A) (A) (A)
                 (A) (A) (A) (A) (A) (A) (A) (A) (A) (A) (A) (A)
                 (A) (A) (A) (A) (A) (A) (A) (A) (A) (A) (A) (A)
                 (A) (A) (A) (A) (A) (A) (A) (A) (A) (A) (A) (A)
                 (A) (A) (A) (A) (A) (A) (A) (A) (A) (A) (A) (A)
                 (A) (A) (A) (A) (A) (A) (A) (A) (A) (A) (A) (A)
                 (A) (A) (A) (A) (A) (A) (A) (A) (A) (A) (A) (A)
                 (A) (A) (A) (A) (A) (A) (A) (A) (A) (A) (A) (A)
                 (A) (A) (A) (A) (A) (A) (A) (A) (A) (A) (A) (A)
                 (A) (A) (A) (A) (A) (A) (A) (A) (A) (A) (A) (A)
                 (A) (A) (A) (A) (A) (A) (A) (A) (A) (A) (A) (A)
                 (A) (A) (A) (A) (A) (A) (A) (A) (A) (A) (A) (A)
                 (A) (A) (A) (A) (A) (A) (A) (A) (A) (A) (A) (A)
                 (A) (A) (A) (A) (A) (A) (A) (A) (A) (A) (A) (A)
                 (A) (A) (A) (A) (A) (A) (A) (A) (A) (A) (A) (A)
                 (A) (A) (A) (A) (A) (A) (A) (A) (A) (A) (A) (A)
                 (A) (A) (A) (A) (A) (A) (A) (A) (A) (A) (A) (A)
                 (A) (A) (A) (A) (A) (A) (A) (A) (A) (A) (A) (A)
                 (A) (A) (A) (A) (A) (A) (A) (A) (A) (A) (A) (A)
                 (A) (A) (A) (A) (A) (A) (A) (A) (A) (A) (A) (A)
                 (A) (A) (A) (A) (A) (A) (A) (A) (A) (A) (A) (A)
                 (A) (A) (A) (A) (A) (A) (A) (A) (A) (A) (A) (A)
                 (A) (A) (A) (A) (A) (A) (A) (A) (A) (A) (A) (A)
                 (A) (A) (A) (A) (A) (A) (A) (A) (A) (A) (A) (A)
                 (A) (A) (A) (A) (A) (A) (A) (A) (A) (A) (A) (A)
                 (A) (A) (A) (A) (A) (A) (A) (A) (A) (A) (A) (A)
                 (A) (A) (A) (A) (A) (A) (A) (A) (A) (A) (A) (A)
                 (A) (A) (A) (A) (A) (A) (A) (A) (A) (A) (A) (A)
                 (A) (A) (A) (A) (A) (A) (A) (A) (A) (A) (A) (A)
                 (A) (A) (A) (A) (A) (A) (A) (A) (A) (A) (A) (A)
                 (A) (A) (A) (A) (A) (A) (A) (A) (A) (A) (A) (A)
                 (A) (A) (A) (A) (A) (A) (A) (A) (A) (A) (A) (A)
                 (A) (A) (A) (A) (A) (A) (A) (A) (A) (A) (A) (A)
                 (A) (A) (A) (A) (A) (A) (A) (A) (A) (A) (A) (A)
                 (A) (A) (A) (A) (A) (A) (A) (A) (A) (A) (A) (A)
                 (A) (A) (A) (A) (A) (A) (A) (A) (A) (A) (A) (A)
                 (A) (A) (A) (A) (A) (A) (A) (A) (A) (A) (A) (A)
                 (A) (A) (A) (A) (A) (A) (A) (A) (A) (A) (A) (A)
                 (A) (A) (A) (A) (A) (A) (A) (A) (A) (A) (A) (A)
                 (A) (A) (A) (A) (A) (A) (A) (A) (A) (A) (A) (A)
                 (A) (A) (A) (A) (A) (A) (A) (A) (A) (A) (A) (A)
                 (A) (A) (A) (A) (A) (A) (A) (A) (A) (A) (A) (A)
                 (A) (A) (A) (A) (A) (A) (A) (A) (A) (A) (A) (A)
                 (A) (A) (A) (A) (A) (A) (A) (A) (A) (A) (A) (A)
                 (A) (A) (A) (A) (A) (A) (A) (A) (A) (A) (A) (A)
                 (A) (A) (A) (A) (A) (A) (A) (A) (A) (A) (A) (A)
                 (A) (A) (A) (A) (A) (A) (A) (A) (A) (A) (A) (A)
                 (A) (A) (A) (A) (A) (A) (A) (A) (A) (A) (A) (A)
                 (A) (A) (A) (A) (A) (A) (A) (A) (A) (A) (A) (A)
                 (A) (A) (A) (A) (A) (A) (A) (A) (A) (A) (A) (A)
                 (A) (A) (A) (A) (A) (A) (A) (A) (A) (A) (A) (A)
                 (A) (A) (A) (A) (A) (A) (A) (A) (A) (A) (A) (A)
                 (A) (A) (A) (A) (A) (A) (A) (A) (A) (A) (A) (A)
                 (A) (A) (A) (A) (A) (A) (A) (A) (A) (A) (A) (A)
                 (A) (A) (A) (A) (A) (A) (A) (A) (A) (A) (A) (A)
                 (A) (A) (A) (A) (A) (A) (A) (A) (A) (A) (A) (A)
                 (A) (A) (A) (A) (A) (A) (A) (A) (A) (A) (A) (A)
                 (A) (A) (A) (A) (A) (A) (A) (A) (A) (A) (A) (A)
                 (A) (A) (A) (A) (A) (A) (A) (A) (A) (A) (A) (A)
                 (A) (A) (A) (A) (A) (A) (A) (A) (A) (A) (A) (A)
                 (A) (A) (A) (A) (A) (A) (A) (A) (A) (A) (A) (A)
                 (A) (A) (A) (A) (A) (A) (A) (A) (A) (A) (A) (A)
                 (A) (A) (A) (A) (A) (A) (A) (A) (A) (A) (A) (A)
                 (A) (A) (A) (A) (A) (A) (A) (A) (A) (A) (A) (A)
                 (A) (A) (A) (A) (A) (A) (A) (A) (A) (A) (A) (A)
                 (A) (A) (A) (A) (A) (A) (A) (A) (A) (A) (A) (A)
                 (A) (A) (A) (A) (A) (A) (A) (A) (A) (A) (A) (A)
                 (A) (A) (A) (A) (A) (A) (A) (A) (A) (A) (A) (A)
                 (A) (A) (A) (A) (A) (A) (A) (A) (A) (A) (A) (A)
                 (A) (A) (A) (A) (A) (A) (A) (A) (A) (A) (A) (A)
                 (A) (A) (A) (A) (A) (A) (A) (A) (A) (A) (A) (A)
                 (A) (A) (A) (A) (A) (A) (A) (A) (A) (A) (A) (A)
                 (A) (A) (A) (A) (A) (A) (A) (A) (A) (A) (A) (A)
                 (A) (A) (A) (A) (A) (A) (A) (A) (A) (A) (A) (A)
                 (A) (A) (A) (A) (A) (A) (A) (A) (A) (A) (A) (A)
                 (A) (A) (A) (A) (A) (A) (A) (A) (A) (A) (A) (A)
                 (A) (A) (A) (A) (A) (A) (A) (A) (A) (A) (A) (A)
                 (A) (A) (A) (A) (A) (A) (A) (A) (A) (A) (A) (A)
                 (A) (A) (A) (A) (A) (A) (A) (A) (A) (A) (A) (A)
                 (A) (A) (A) (A) (A) (A) (A) (A) (A) (A) (A) (A)
                 (A) (A) (A) (A) (A) (A) (A) (A) (A) (A) (A) (A)
                 (A) (A) (A) (A) (A) (A) (A) (A) (A) (A) (A) (A)
                 (A) (A) (A)
 The electronic state is 5-A.
 Alpha  occ. eigenvalues -- -256.31928 -30.11745 -25.94626 -25.93890 -25.92991
 Alpha  occ. eigenvalues --  -19.26575 -19.25753 -19.18428 -19.15506 -14.43649
 Alpha  occ. eigenvalues --  -14.43237 -14.36847 -14.36655 -14.35640 -14.35503
 Alpha  occ. eigenvalues --  -14.35187 -14.35143 -10.35914 -10.33492 -10.26987
 Alpha  occ. eigenvalues --  -10.26540 -10.24839 -10.24721 -10.23572 -10.23213
 Alpha  occ. eigenvalues --  -10.23142 -10.23042 -10.22877 -10.22784 -10.22771
 Alpha  occ. eigenvalues --  -10.22631 -10.22570 -10.22551 -10.22535 -10.22525
 Alpha  occ. eigenvalues --  -10.22161 -10.22061 -10.21941 -10.21860 -10.21764
 Alpha  occ. eigenvalues --  -10.21350 -10.21161 -10.20993 -10.20904 -10.20817
 Alpha  occ. eigenvalues --  -10.20806 -10.20647 -10.20616 -10.20600 -10.20526
 Alpha  occ. eigenvalues --  -10.20473 -10.20392 -10.20143 -10.20141 -10.19897
 Alpha  occ. eigenvalues --  -10.19794 -10.19781 -10.19709 -10.19592  -3.50787
 Alpha  occ. eigenvalues --   -2.29500  -2.26687  -2.23826  -1.16629  -1.16568
 Alpha  occ. eigenvalues --   -1.05051  -1.05026  -1.02736  -1.00540  -0.95619
 Alpha  occ. eigenvalues --   -0.94600  -0.94474  -0.93490  -0.89680  -0.89463
 Alpha  occ. eigenvalues --   -0.82475  -0.82333  -0.81381  -0.80537  -0.80446
 Alpha  occ. eigenvalues --   -0.80438  -0.80000  -0.79252  -0.78752  -0.77919
 Alpha  occ. eigenvalues --   -0.77459  -0.75884  -0.75277  -0.73433  -0.72811
 Alpha  occ. eigenvalues --   -0.72257  -0.71781  -0.71616  -0.70844  -0.70029
 Alpha  occ. eigenvalues --   -0.69401  -0.68658  -0.67746  -0.65876  -0.64899
 Alpha  occ. eigenvalues --   -0.63880  -0.63745  -0.63598  -0.63313  -0.61914
 Alpha  occ. eigenvalues --   -0.61598  -0.60932  -0.60732  -0.57343  -0.55857
 Alpha  occ. eigenvalues --   -0.55762  -0.55565  -0.54729  -0.53621  -0.53328
 Alpha  occ. eigenvalues --   -0.52842  -0.52044  -0.51107  -0.50911  -0.50272
 Alpha  occ. eigenvalues --   -0.50057  -0.49523  -0.49423  -0.48027  -0.47921
 Alpha  occ. eigenvalues --   -0.47468  -0.47324  -0.47078  -0.47035  -0.46849
 Alpha  occ. eigenvalues --   -0.46687  -0.46520  -0.45156  -0.44708  -0.44316
 Alpha  occ. eigenvalues --   -0.44029  -0.43649  -0.43478  -0.43363  -0.43128
 Alpha  occ. eigenvalues --   -0.42875  -0.42854  -0.42683  -0.42567  -0.42467
 Alpha  occ. eigenvalues --   -0.42328  -0.42265  -0.42205  -0.42052  -0.41813
 Alpha  occ. eigenvalues --   -0.41667  -0.41480  -0.41387  -0.41278  -0.40849
 Alpha  occ. eigenvalues --   -0.40571  -0.40441  -0.39851  -0.39633  -0.39495
 Alpha  occ. eigenvalues --   -0.39248  -0.38613  -0.38457  -0.38350  -0.38017
 Alpha  occ. eigenvalues --   -0.37932  -0.37756  -0.37482  -0.37225  -0.36864
 Alpha  occ. eigenvalues --   -0.36528  -0.36384  -0.36203  -0.35843  -0.35703
 Alpha  occ. eigenvalues --   -0.35187  -0.35027  -0.34686  -0.33839  -0.33600
 Alpha  occ. eigenvalues --   -0.33147  -0.33038  -0.32598  -0.31979  -0.31523
 Alpha  occ. eigenvalues --   -0.31242  -0.30724  -0.30547  -0.29579  -0.29033
 Alpha  occ. eigenvalues --   -0.28264  -0.27485  -0.26504  -0.26477  -0.26330
 Alpha  occ. eigenvalues --   -0.25812  -0.25186  -0.23806  -0.23768  -0.23330
 Alpha  occ. eigenvalues --   -0.22845  -0.21774  -0.21261  -0.19120  -0.18513
 Alpha  occ. eigenvalues --   -0.17333  -0.16613  -0.15162
 Alpha virt. eigenvalues --   -0.05598  -0.05205  -0.01345   0.00380   0.00673
 Alpha virt. eigenvalues --    0.02114   0.02742   0.02914   0.03094   0.03440
 Alpha virt. eigenvalues --    0.03764   0.04161   0.04730   0.05224   0.05615
 Alpha virt. eigenvalues --    0.05983   0.06259   0.06615   0.06709   0.07139
 Alpha virt. eigenvalues --    0.07218   0.07407   0.07905   0.08136   0.08422
 Alpha virt. eigenvalues --    0.08520   0.09025   0.09226   0.09637   0.09734
 Alpha virt. eigenvalues --    0.09950   0.10297   0.10409   0.10704   0.10976
 Alpha virt. eigenvalues --    0.11154   0.11359   0.11815   0.11931   0.12201
 Alpha virt. eigenvalues --    0.12318   0.12628   0.12804   0.12959   0.13017
 Alpha virt. eigenvalues --    0.13377   0.13492   0.13563   0.14109   0.14257
 Alpha virt. eigenvalues --    0.14361   0.14512   0.14823   0.14868   0.14980
 Alpha virt. eigenvalues --    0.15053   0.15185   0.15242   0.15511   0.15865
 Alpha virt. eigenvalues --    0.16061   0.16264   0.16385   0.16672   0.16910
 Alpha virt. eigenvalues --    0.17206   0.17286   0.17562   0.17627   0.17870
 Alpha virt. eigenvalues --    0.18178   0.18267   0.18405   0.18643   0.18879
 Alpha virt. eigenvalues --    0.19216   0.19401   0.19680   0.20045   0.20349
 Alpha virt. eigenvalues --    0.20410   0.20658   0.20932   0.21049   0.21161
 Alpha virt. eigenvalues --    0.21553   0.21774   0.21968   0.22085   0.22474
 Alpha virt. eigenvalues --    0.22843   0.22886   0.23065   0.23269   0.23429
 Alpha virt. eigenvalues --    0.23551   0.23593   0.23876   0.24165   0.24362
 Alpha virt. eigenvalues --    0.24441   0.24555   0.24841   0.25218   0.25532
 Alpha virt. eigenvalues --    0.25731   0.25803   0.26003   0.26319   0.26371
 Alpha virt. eigenvalues --    0.26704   0.26838   0.26878   0.27267   0.27423
 Alpha virt. eigenvalues --    0.27664   0.27745   0.28110   0.28298   0.28376
 Alpha virt. eigenvalues --    0.28607   0.29146   0.29323   0.29375   0.29697
 Alpha virt. eigenvalues --    0.29820   0.29986   0.30084   0.30170   0.30595
 Alpha virt. eigenvalues --    0.30903   0.30980   0.31227   0.31294   0.31706
 Alpha virt. eigenvalues --    0.31850   0.32200   0.32338   0.32671   0.32779
 Alpha virt. eigenvalues --    0.33081   0.33294   0.33577   0.33757   0.34376
 Alpha virt. eigenvalues --    0.34560   0.34746   0.34942   0.35101   0.35199
 Alpha virt. eigenvalues --    0.35332   0.35628   0.35861   0.36200   0.36378
 Alpha virt. eigenvalues --    0.36554   0.36909   0.37106   0.37193   0.37471
 Alpha virt. eigenvalues --    0.37605   0.37787   0.37903   0.38302   0.38364
 Alpha virt. eigenvalues --    0.38600   0.38756   0.39026   0.39306   0.39415
 Alpha virt. eigenvalues --    0.39635   0.39786   0.39870   0.40256   0.40393
 Alpha virt. eigenvalues --    0.40535   0.40808   0.40940   0.41158   0.41354
 Alpha virt. eigenvalues --    0.41535   0.41732   0.41741   0.42048   0.42246
 Alpha virt. eigenvalues --    0.42370   0.42583   0.42791   0.42983   0.43098
 Alpha virt. eigenvalues --    0.43192   0.43265   0.43492   0.43567   0.43913
 Alpha virt. eigenvalues --    0.44133   0.44325   0.44421   0.44634   0.44766
 Alpha virt. eigenvalues --    0.44958   0.45118   0.45219   0.45470   0.45643
 Alpha virt. eigenvalues --    0.45851   0.45895   0.46314   0.46378   0.46385
 Alpha virt. eigenvalues --    0.46602   0.46804   0.46909   0.47084   0.47299
 Alpha virt. eigenvalues --    0.47562   0.47623   0.47711   0.47966   0.48107
 Alpha virt. eigenvalues --    0.48157   0.48248   0.48460   0.48671   0.48740
 Alpha virt. eigenvalues --    0.48879   0.49078   0.49210   0.49328   0.49457
 Alpha virt. eigenvalues --    0.49725   0.50102   0.50138   0.50415   0.50444
 Alpha virt. eigenvalues --    0.50715   0.50987   0.51156   0.51168   0.51282
 Alpha virt. eigenvalues --    0.51562   0.51670   0.51815   0.51966   0.52249
 Alpha virt. eigenvalues --    0.52453   0.52557   0.52627   0.52840   0.53009
 Alpha virt. eigenvalues --    0.53052   0.53346   0.53505   0.53649   0.54002
 Alpha virt. eigenvalues --    0.54067   0.54347   0.54503   0.54712   0.54919
 Alpha virt. eigenvalues --    0.55272   0.55401   0.55608   0.55799   0.56017
 Alpha virt. eigenvalues --    0.56061   0.56246   0.56469   0.56558   0.57028
 Alpha virt. eigenvalues --    0.57215   0.57321   0.57462   0.57767   0.58010
 Alpha virt. eigenvalues --    0.58075   0.58215   0.58601   0.58785   0.58889
 Alpha virt. eigenvalues --    0.59246   0.59368   0.59511   0.59626   0.59849
 Alpha virt. eigenvalues --    0.60197   0.60361   0.60863   0.61067   0.61211
 Alpha virt. eigenvalues --    0.61565   0.61763   0.61883   0.62340   0.62598
 Alpha virt. eigenvalues --    0.62975   0.63031   0.63197   0.63411   0.63487
 Alpha virt. eigenvalues --    0.64022   0.64412   0.64761   0.64797   0.65168
 Alpha virt. eigenvalues --    0.65243   0.65630   0.65761   0.65938   0.66166
 Alpha virt. eigenvalues --    0.66407   0.66666   0.66946   0.67121   0.67183
 Alpha virt. eigenvalues --    0.67504   0.67706   0.68061   0.68321   0.68545
 Alpha virt. eigenvalues --    0.68912   0.69262   0.69443   0.69706   0.70101
 Alpha virt. eigenvalues --    0.70535   0.70847   0.70906   0.71287   0.71573
 Alpha virt. eigenvalues --    0.71723   0.72175   0.72340   0.72651   0.72815
 Alpha virt. eigenvalues --    0.73516   0.73821   0.73895   0.74312   0.74464
 Alpha virt. eigenvalues --    0.74741   0.75065   0.75373   0.75450   0.75803
 Alpha virt. eigenvalues --    0.76160   0.76516   0.76670   0.77030   0.77149
 Alpha virt. eigenvalues --    0.77498   0.77754   0.77943   0.78379   0.78642
 Alpha virt. eigenvalues --    0.78881   0.79192   0.79316   0.79945   0.80047
 Alpha virt. eigenvalues --    0.80318   0.80497   0.80663   0.81020   0.81633
 Alpha virt. eigenvalues --    0.81833   0.81969   0.82133   0.82518   0.82875
 Alpha virt. eigenvalues --    0.83021   0.83284   0.83600   0.83983   0.84276
 Alpha virt. eigenvalues --    0.84346   0.84720   0.84890   0.84927   0.85712
 Alpha virt. eigenvalues --    0.85826   0.86346   0.86700   0.86799   0.87081
 Alpha virt. eigenvalues --    0.87257   0.87453   0.87985   0.88180   0.88442
 Alpha virt. eigenvalues --    0.88617   0.89046   0.89426   0.89521   0.90162
 Alpha virt. eigenvalues --    0.90328   0.90819   0.91000   0.91146   0.91831
 Alpha virt. eigenvalues --    0.91890   0.91999   0.92299   0.92635   0.92720
 Alpha virt. eigenvalues --    0.93081   0.93325   0.93462   0.93944   0.93995
 Alpha virt. eigenvalues --    0.94430   0.94558   0.94691   0.95108   0.95400
 Alpha virt. eigenvalues --    0.95747   0.95988   0.96338   0.96456   0.96876
 Alpha virt. eigenvalues --    0.96974   0.97299   0.97387   0.97642   0.97761
 Alpha virt. eigenvalues --    0.97820   0.97955   0.98287   0.98604   0.98903
 Alpha virt. eigenvalues --    0.99095   0.99224   0.99731   0.99980   1.00248
 Alpha virt. eigenvalues --    1.00327   1.00622   1.00834   1.01084   1.01577
 Alpha virt. eigenvalues --    1.01764   1.02134   1.02723   1.02975   1.03188
 Alpha virt. eigenvalues --    1.03315   1.03588   1.04026   1.04132   1.04258
 Alpha virt. eigenvalues --    1.04671   1.04904   1.05054   1.05446   1.05695
 Alpha virt. eigenvalues --    1.05951   1.06405   1.06612   1.06899   1.07081
 Alpha virt. eigenvalues --    1.07286   1.07728   1.08156   1.08253   1.08751
 Alpha virt. eigenvalues --    1.09055   1.09592   1.09641   1.09828   1.09977
 Alpha virt. eigenvalues --    1.10074   1.10933   1.11105   1.11359   1.11740
 Alpha virt. eigenvalues --    1.12213   1.12421   1.12758   1.13189   1.13316
 Alpha virt. eigenvalues --    1.13409   1.13747   1.14344   1.14381   1.14457
 Alpha virt. eigenvalues --    1.15060   1.15180   1.15638   1.15860   1.16029
 Alpha virt. eigenvalues --    1.16333   1.16616   1.16900   1.17248   1.18222
 Alpha virt. eigenvalues --    1.18553   1.18950   1.19126   1.19366   1.19517
 Alpha virt. eigenvalues --    1.20044   1.20265   1.20642   1.20726   1.21228
 Alpha virt. eigenvalues --    1.21678   1.21863   1.22212   1.22484   1.22749
 Alpha virt. eigenvalues --    1.22980   1.23221   1.23461   1.23782   1.24136
 Alpha virt. eigenvalues --    1.24411   1.24763   1.25364   1.25981   1.26085
 Alpha virt. eigenvalues --    1.26396   1.26577   1.26903   1.27123   1.27648
 Alpha virt. eigenvalues --    1.28169   1.28194   1.28655   1.28843   1.29244
 Alpha virt. eigenvalues --    1.29547   1.29836   1.30414   1.30502   1.30799
 Alpha virt. eigenvalues --    1.31315   1.31789   1.32110   1.32443   1.33027
 Alpha virt. eigenvalues --    1.33132   1.33667   1.34113   1.34565   1.34684
 Alpha virt. eigenvalues --    1.35096   1.35186   1.35845   1.36227   1.36357
 Alpha virt. eigenvalues --    1.36691   1.36918   1.37330   1.38134   1.38175
 Alpha virt. eigenvalues --    1.38376   1.38854   1.39101   1.39342   1.39761
 Alpha virt. eigenvalues --    1.40454   1.41405   1.41542   1.41668   1.42153
 Alpha virt. eigenvalues --    1.42460   1.43233   1.43411   1.43765   1.44283
 Alpha virt. eigenvalues --    1.44448   1.44830   1.45133   1.45250   1.45619
 Alpha virt. eigenvalues --    1.46070   1.46571   1.46808   1.47095   1.47781
 Alpha virt. eigenvalues --    1.48145   1.48764   1.48883   1.49037   1.49543
 Alpha virt. eigenvalues --    1.49637   1.50028   1.50129   1.50597   1.50782
 Alpha virt. eigenvalues --    1.50875   1.51036   1.51552   1.51724   1.51827
 Alpha virt. eigenvalues --    1.52116   1.52705   1.53060   1.53209   1.53346
 Alpha virt. eigenvalues --    1.53533   1.53867   1.54071   1.54223   1.54632
 Alpha virt. eigenvalues --    1.54719   1.55028   1.55191   1.55294   1.55757
 Alpha virt. eigenvalues --    1.56048   1.56091   1.56272   1.56482   1.56774
 Alpha virt. eigenvalues --    1.56938   1.56986   1.57239   1.57557   1.57719
 Alpha virt. eigenvalues --    1.58013   1.58162   1.58473   1.58641   1.58972
 Alpha virt. eigenvalues --    1.59176   1.59638   1.59874   1.60097   1.60229
 Alpha virt. eigenvalues --    1.60542   1.60749   1.61237   1.61357   1.61584
 Alpha virt. eigenvalues --    1.61919   1.62096   1.62120   1.62512   1.62644
 Alpha virt. eigenvalues --    1.63051   1.63349   1.63519   1.63674   1.63977
 Alpha virt. eigenvalues --    1.64077   1.64422   1.64794   1.64959   1.65304
 Alpha virt. eigenvalues --    1.65717   1.65812   1.66052   1.66143   1.66317
 Alpha virt. eigenvalues --    1.66466   1.67012   1.67316   1.67510   1.67554
 Alpha virt. eigenvalues --    1.67743   1.67963   1.68456   1.69023   1.69128
 Alpha virt. eigenvalues --    1.69550   1.69711   1.69824   1.70211   1.70413
 Alpha virt. eigenvalues --    1.70873   1.71236   1.71535   1.71637   1.71990
 Alpha virt. eigenvalues --    1.72029   1.72429   1.72685   1.72881   1.73322
 Alpha virt. eigenvalues --    1.73405   1.73927   1.74054   1.74324   1.74455
 Alpha virt. eigenvalues --    1.74910   1.74957   1.75495   1.75731   1.75923
 Alpha virt. eigenvalues --    1.76294   1.76741   1.77035   1.77526   1.77922
 Alpha virt. eigenvalues --    1.78278   1.78400   1.78840   1.79146   1.79494
 Alpha virt. eigenvalues --    1.79855   1.80397   1.80528   1.81092   1.81392
 Alpha virt. eigenvalues --    1.81933   1.82069   1.82654   1.82859   1.83910
 Alpha virt. eigenvalues --    1.84001   1.84437   1.84825   1.85530   1.85817
 Alpha virt. eigenvalues --    1.86083   1.86448   1.87069   1.87216   1.87826
 Alpha virt. eigenvalues --    1.88157   1.88428   1.88859   1.89301   1.89885
 Alpha virt. eigenvalues --    1.90121   1.90268   1.90822   1.90979   1.91151
 Alpha virt. eigenvalues --    1.91579   1.92104   1.92367   1.93061   1.93315
 Alpha virt. eigenvalues --    1.93505   1.93888   1.94090   1.94468   1.94740
 Alpha virt. eigenvalues --    1.94861   1.95858   1.96138   1.96518   1.97120
 Alpha virt. eigenvalues --    1.97312   1.97502   1.97742   1.98036   1.98270
 Alpha virt. eigenvalues --    1.98602   1.99100   1.99285   1.99543   2.00248
 Alpha virt. eigenvalues --    2.00677   2.00787   2.00822   2.01143   2.01543
 Alpha virt. eigenvalues --    2.01701   2.01826   2.02110   2.02593   2.02628
 Alpha virt. eigenvalues --    2.03140   2.03544   2.04038   2.04251   2.04611
 Alpha virt. eigenvalues --    2.05009   2.05633   2.05944   2.06408   2.06537
 Alpha virt. eigenvalues --    2.06703   2.07191   2.07296   2.07579   2.08216
 Alpha virt. eigenvalues --    2.08449   2.08680   2.08874   2.09352   2.09748
 Alpha virt. eigenvalues --    2.09840   2.10096   2.10581   2.11212   2.11718
 Alpha virt. eigenvalues --    2.11922   2.12430   2.12728   2.12839   2.13698
 Alpha virt. eigenvalues --    2.13833   2.14183   2.14468   2.14809   2.14909
 Alpha virt. eigenvalues --    2.15688   2.15882   2.16187   2.16239   2.16502
 Alpha virt. eigenvalues --    2.16787   2.16971   2.17284   2.17548   2.17844
 Alpha virt. eigenvalues --    2.18063   2.18439   2.18680   2.19285   2.19552
 Alpha virt. eigenvalues --    2.19806   2.20134   2.20435   2.20805   2.20953
 Alpha virt. eigenvalues --    2.21055   2.21433   2.21881   2.22259   2.22319
 Alpha virt. eigenvalues --    2.22470   2.23111   2.23260   2.23664   2.23950
 Alpha virt. eigenvalues --    2.24534   2.24936   2.25441   2.25686   2.26377
 Alpha virt. eigenvalues --    2.26522   2.26672   2.27319   2.27661   2.27996
 Alpha virt. eigenvalues --    2.28240   2.28913   2.29031   2.29665   2.29928
 Alpha virt. eigenvalues --    2.30187   2.30355   2.30678   2.30983   2.31214
 Alpha virt. eigenvalues --    2.31356   2.31676   2.32578   2.32761   2.33232
 Alpha virt. eigenvalues --    2.33739   2.33785   2.34273   2.34466   2.34700
 Alpha virt. eigenvalues --    2.34911   2.35319   2.35706   2.35992   2.36177
 Alpha virt. eigenvalues --    2.36650   2.36793   2.37107   2.37497   2.37870
 Alpha virt. eigenvalues --    2.37952   2.38190   2.38431   2.38846   2.39123
 Alpha virt. eigenvalues --    2.39296   2.39643   2.39964   2.40617   2.40955
 Alpha virt. eigenvalues --    2.41547   2.41695   2.41807   2.42381   2.42807
 Alpha virt. eigenvalues --    2.43385   2.43573   2.43795   2.44006   2.44879
 Alpha virt. eigenvalues --    2.45264   2.45428   2.45557   2.46175   2.46424
 Alpha virt. eigenvalues --    2.46643   2.47031   2.47358   2.47558   2.48001
 Alpha virt. eigenvalues --    2.48568   2.48844   2.49001   2.49287   2.49972
 Alpha virt. eigenvalues --    2.50820   2.51252   2.51554   2.51860   2.52131
 Alpha virt. eigenvalues --    2.52573   2.52993   2.53501   2.53789   2.54012
 Alpha virt. eigenvalues --    2.54123   2.54384   2.54464   2.55112   2.55609
 Alpha virt. eigenvalues --    2.56196   2.56409   2.56673   2.57078   2.57665
 Alpha virt. eigenvalues --    2.57918   2.58057   2.58426   2.58733   2.59005
 Alpha virt. eigenvalues --    2.59311   2.59403   2.59590   2.59798   2.60140
 Alpha virt. eigenvalues --    2.60503   2.60939   2.61205   2.61344   2.61853
 Alpha virt. eigenvalues --    2.62268   2.62793   2.63082   2.63111   2.63381
 Alpha virt. eigenvalues --    2.63843   2.63857   2.64353   2.64580   2.64793
 Alpha virt. eigenvalues --    2.64966   2.65072   2.65295   2.65569   2.66047
 Alpha virt. eigenvalues --    2.66347   2.66665   2.66867   2.67417   2.67587
 Alpha virt. eigenvalues --    2.67833   2.68003   2.68363   2.68642   2.69335
 Alpha virt. eigenvalues --    2.69776   2.70236   2.70649   2.70939   2.71159
 Alpha virt. eigenvalues --    2.71318   2.71578   2.72193   2.72550   2.72848
 Alpha virt. eigenvalues --    2.72993   2.73240   2.73422   2.73709   2.74293
 Alpha virt. eigenvalues --    2.74470   2.74885   2.75183   2.75735   2.76002
 Alpha virt. eigenvalues --    2.76170   2.76224   2.77101   2.77426   2.77523
 Alpha virt. eigenvalues --    2.77931   2.78257   2.78613   2.79012   2.79613
 Alpha virt. eigenvalues --    2.79936   2.80244   2.80621   2.80743   2.81367
 Alpha virt. eigenvalues --    2.81595   2.81791   2.82229   2.82300   2.82590
 Alpha virt. eigenvalues --    2.82890   2.83065   2.83563   2.83846   2.83971
 Alpha virt. eigenvalues --    2.84701   2.84859   2.85501   2.85636   2.85715
 Alpha virt. eigenvalues --    2.86078   2.86305   2.87204   2.87353   2.87670
 Alpha virt. eigenvalues --    2.87688   2.88270   2.88376   2.88855   2.89127
 Alpha virt. eigenvalues --    2.89681   2.90101   2.90411   2.90700   2.90940
 Alpha virt. eigenvalues --    2.91122   2.91288   2.91502   2.91588   2.92190
 Alpha virt. eigenvalues --    2.92497   2.92713   2.93105   2.93432   2.93887
 Alpha virt. eigenvalues --    2.94261   2.94312   2.94699   2.94938   2.95583
 Alpha virt. eigenvalues --    2.95878   2.96204   2.96315   2.96888   2.96898
 Alpha virt. eigenvalues --    2.97315   2.97507   2.97917   2.98004   2.98163
 Alpha virt. eigenvalues --    2.98660   2.99096   2.99105   2.99666   2.99825
 Alpha virt. eigenvalues --    3.00125   3.00310   3.00980   3.01099   3.01193
 Alpha virt. eigenvalues --    3.01323   3.01667   3.01921   3.02401   3.02546
 Alpha virt. eigenvalues --    3.02873   3.03275   3.03449   3.03647   3.04126
 Alpha virt. eigenvalues --    3.04222   3.04589   3.05198   3.05479   3.05739
 Alpha virt. eigenvalues --    3.06280   3.06326   3.06587   3.06980   3.07115
 Alpha virt. eigenvalues --    3.07584   3.07655   3.07964   3.08339   3.08589
 Alpha virt. eigenvalues --    3.08601   3.08781   3.09045   3.09474   3.09923
 Alpha virt. eigenvalues --    3.10097   3.10596   3.10653   3.11023   3.11237
 Alpha virt. eigenvalues --    3.11432   3.11672   3.12029   3.12106   3.12517
 Alpha virt. eigenvalues --    3.12789   3.12989   3.13237   3.13534   3.13736
 Alpha virt. eigenvalues --    3.13893   3.14064   3.14274   3.14827   3.14911
 Alpha virt. eigenvalues --    3.15195   3.15341   3.15682   3.15909   3.16017
 Alpha virt. eigenvalues --    3.16402   3.16531   3.16855   3.17005   3.17088
 Alpha virt. eigenvalues --    3.17276   3.17938   3.18065   3.18259   3.18448
 Alpha virt. eigenvalues --    3.18628   3.18896   3.19243   3.19502   3.19774
 Alpha virt. eigenvalues --    3.20047   3.20198   3.20654   3.20826   3.21093
 Alpha virt. eigenvalues --    3.21434   3.21718   3.21790   3.21870   3.22449
 Alpha virt. eigenvalues --    3.22680   3.23001   3.23351   3.23655   3.23781
 Alpha virt. eigenvalues --    3.23996   3.24210   3.24339   3.24588   3.24741
 Alpha virt. eigenvalues --    3.24892   3.25073   3.25479   3.25749   3.25958
 Alpha virt. eigenvalues --    3.26195   3.26510   3.26682   3.27193   3.27279
 Alpha virt. eigenvalues --    3.27562   3.27989   3.28201   3.28265   3.28399
 Alpha virt. eigenvalues --    3.28602   3.29105   3.29390   3.29841   3.30001
 Alpha virt. eigenvalues --    3.30013   3.30187   3.30659   3.30742   3.31033
 Alpha virt. eigenvalues --    3.31557   3.31716   3.31800   3.32269   3.32469
 Alpha virt. eigenvalues --    3.32766   3.33084   3.33174   3.33324   3.33588
 Alpha virt. eigenvalues --    3.33833   3.34260   3.34394   3.34860   3.35118
 Alpha virt. eigenvalues --    3.35269   3.35497   3.35625   3.35785   3.36198
 Alpha virt. eigenvalues --    3.36511   3.36636   3.36950   3.37234   3.37712
 Alpha virt. eigenvalues --    3.37877   3.37968   3.38063   3.38422   3.38629
 Alpha virt. eigenvalues --    3.38776   3.38830   3.39036   3.39556   3.39606
 Alpha virt. eigenvalues --    3.40056   3.40234   3.40496   3.40624   3.40638
 Alpha virt. eigenvalues --    3.41157   3.41216   3.41577   3.41740   3.41990
 Alpha virt. eigenvalues --    3.42232   3.42383   3.42562   3.43116   3.43237
 Alpha virt. eigenvalues --    3.43348   3.43860   3.44245   3.44335   3.44856
 Alpha virt. eigenvalues --    3.45161   3.45475   3.45739   3.45811   3.45999
 Alpha virt. eigenvalues --    3.46606   3.46653   3.46985   3.47086   3.47474
 Alpha virt. eigenvalues --    3.47698   3.47799   3.48295   3.48429   3.48766
 Alpha virt. eigenvalues --    3.49295   3.49477   3.49817   3.50329   3.50377
 Alpha virt. eigenvalues --    3.50518   3.51240   3.51361   3.51595   3.51691
 Alpha virt. eigenvalues --    3.52021   3.52484   3.52583   3.52939   3.53661
 Alpha virt. eigenvalues --    3.53686   3.54637   3.54817   3.55050   3.55351
 Alpha virt. eigenvalues --    3.55680   3.56018   3.56234   3.56341   3.56880
 Alpha virt. eigenvalues --    3.57136   3.57206   3.57611   3.58103   3.58245
 Alpha virt. eigenvalues --    3.58592   3.59257   3.59680   3.59934   3.60113
 Alpha virt. eigenvalues --    3.60301   3.60662   3.61151   3.61325   3.61758
 Alpha virt. eigenvalues --    3.62073   3.62680   3.62909   3.63327   3.63590
 Alpha virt. eigenvalues --    3.63819   3.63974   3.64213   3.64801   3.65070
 Alpha virt. eigenvalues --    3.65359   3.65736   3.65963   3.66331   3.66627
 Alpha virt. eigenvalues --    3.67050   3.67244   3.67707   3.68167   3.68358
 Alpha virt. eigenvalues --    3.69122   3.69586   3.69649   3.69854   3.70091
 Alpha virt. eigenvalues --    3.70321   3.70655   3.71069   3.71502   3.72018
 Alpha virt. eigenvalues --    3.72256   3.72463   3.72744   3.73593   3.73948
 Alpha virt. eigenvalues --    3.74299   3.74544   3.74659   3.75249   3.75568
 Alpha virt. eigenvalues --    3.75787   3.76019   3.76363   3.76898   3.76937
 Alpha virt. eigenvalues --    3.77426   3.77496   3.77987   3.78058   3.78204
 Alpha virt. eigenvalues --    3.78845   3.79055   3.79454   3.79938   3.80139
 Alpha virt. eigenvalues --    3.80368   3.80828   3.81341   3.81958   3.82217
 Alpha virt. eigenvalues --    3.83314   3.83673   3.84114   3.84509   3.84714
 Alpha virt. eigenvalues --    3.84935   3.85594   3.86294   3.86502   3.86717
 Alpha virt. eigenvalues --    3.86855   3.87303   3.88184   3.88412   3.88765
 Alpha virt. eigenvalues --    3.89091   3.89548   3.90216   3.91072   3.91666
 Alpha virt. eigenvalues --    3.91831   3.92330   3.92522   3.93356   3.93486
 Alpha virt. eigenvalues --    3.93627   3.94088   3.94481   3.94841   3.95447
 Alpha virt. eigenvalues --    3.95708   3.96039   3.96490   3.96822   3.97554
 Alpha virt. eigenvalues --    3.97715   3.98210   3.98760   3.99310   3.99959
 Alpha virt. eigenvalues --    4.00332   4.01213   4.01374   4.01453   4.02476
 Alpha virt. eigenvalues --    4.02906   4.03469   4.03611   4.04365   4.04802
 Alpha virt. eigenvalues --    4.04870   4.05658   4.06058   4.06656   4.07017
 Alpha virt. eigenvalues --    4.07880   4.08478   4.09203   4.09544   4.10359
 Alpha virt. eigenvalues --    4.11109   4.11216   4.12291   4.12388   4.13542
 Alpha virt. eigenvalues --    4.13892   4.14432   4.14957   4.15784   4.16117
 Alpha virt. eigenvalues --    4.16496   4.16583   4.17551   4.17752   4.18335
 Alpha virt. eigenvalues --    4.19429   4.19916   4.20374   4.20874   4.21598
 Alpha virt. eigenvalues --    4.21761   4.22109   4.22371   4.22974   4.23689
 Alpha virt. eigenvalues --    4.23747   4.24529   4.24925   4.25366   4.26301
 Alpha virt. eigenvalues --    4.26428   4.27116   4.27434   4.28161   4.28605
 Alpha virt. eigenvalues --    4.28816   4.29435   4.29716   4.30760   4.31143
 Alpha virt. eigenvalues --    4.31499   4.32436   4.32582   4.32906   4.33505
 Alpha virt. eigenvalues --    4.33974   4.34396   4.34595   4.35286   4.35684
 Alpha virt. eigenvalues --    4.36406   4.36620   4.36996   4.37059   4.37608
 Alpha virt. eigenvalues --    4.37743   4.38347   4.38911   4.39328   4.39907
 Alpha virt. eigenvalues --    4.40202   4.40488   4.41093   4.41255   4.41663
 Alpha virt. eigenvalues --    4.41782   4.42069   4.42628   4.42946   4.43545
 Alpha virt. eigenvalues --    4.43787   4.44683   4.45143   4.45792   4.46246
 Alpha virt. eigenvalues --    4.46570   4.47409   4.47945   4.48629   4.49316
 Alpha virt. eigenvalues --    4.49733   4.50054   4.50120   4.50594   4.50855
 Alpha virt. eigenvalues --    4.51096   4.51624   4.52244   4.52531   4.53109
 Alpha virt. eigenvalues --    4.53695   4.53820   4.54814   4.55173   4.55631
 Alpha virt. eigenvalues --    4.56758   4.57727   4.58405   4.59463   4.60455
 Alpha virt. eigenvalues --    4.61492   4.61877   4.62535   4.63671   4.63704
 Alpha virt. eigenvalues --    4.64807   4.65253   4.66351   4.66426   4.67576
 Alpha virt. eigenvalues --    4.67691   4.68378   4.69454   4.69867   4.70094
 Alpha virt. eigenvalues --    4.70587   4.70905   4.71435   4.71825   4.72712
 Alpha virt. eigenvalues --    4.73021   4.73531   4.74217   4.74361   4.74825
 Alpha virt. eigenvalues --    4.75232   4.76172   4.76355   4.77210   4.78038
 Alpha virt. eigenvalues --    4.78121   4.78830   4.79259   4.80002   4.81041
 Alpha virt. eigenvalues --    4.81571   4.82000   4.82389   4.83156   4.83822
 Alpha virt. eigenvalues --    4.84112   4.85185   4.85380   4.85945   4.86344
 Alpha virt. eigenvalues --    4.86688   4.86872   4.87203   4.88143   4.88272
 Alpha virt. eigenvalues --    4.89500   4.90022   4.91140   4.91801   4.92177
 Alpha virt. eigenvalues --    4.92662   4.93491   4.94393   4.94748   4.95570
 Alpha virt. eigenvalues --    4.95971   4.96540   4.97111   4.97333   4.98158
 Alpha virt. eigenvalues --    4.99667   5.00308   5.00445   5.01408   5.01487
 Alpha virt. eigenvalues --    5.02220   5.02735   5.04335   5.04949   5.04995
 Alpha virt. eigenvalues --    5.05440   5.06021   5.07075   5.07578   5.08657
 Alpha virt. eigenvalues --    5.09478   5.10108   5.11197   5.11468   5.12492
 Alpha virt. eigenvalues --    5.13347   5.14063   5.15390   5.16684   5.17066
 Alpha virt. eigenvalues --    5.17688   5.18300   5.19199   5.19917   5.21265
 Alpha virt. eigenvalues --    5.21619   5.21948   5.22881   5.23456   5.23617
 Alpha virt. eigenvalues --    5.23963   5.24141   5.24634   5.25724   5.26133
 Alpha virt. eigenvalues --    5.27241   5.27448   5.28695   5.29647   5.31416
 Alpha virt. eigenvalues --    5.32535   5.32683   5.33865   5.34016   5.35267
 Alpha virt. eigenvalues --    5.35889   5.36463   5.38045   5.38290   5.38467
 Alpha virt. eigenvalues --    5.39258   5.39871   5.40938   5.41954   5.44021
 Alpha virt. eigenvalues --    5.44174   5.44622   5.45500   5.46123   5.46939
 Alpha virt. eigenvalues --    5.47653   5.48238   5.48612   5.49239   5.49754
 Alpha virt. eigenvalues --    5.51106   5.51683   5.53387   5.54479   5.55733
 Alpha virt. eigenvalues --    5.56199   5.57515   5.58694   5.59290   5.59884
 Alpha virt. eigenvalues --    5.61477   5.61977   5.62541   5.62696   5.63980
 Alpha virt. eigenvalues --    5.64168   5.64989   5.65931   5.66033   5.68326
 Alpha virt. eigenvalues --    5.69234   5.70349   5.71509   5.72091   5.74713
 Alpha virt. eigenvalues --    5.76463   5.78546   5.80370   5.81936   5.83559
 Alpha virt. eigenvalues --    5.84729   5.85557   5.86432   5.87749   5.92750
 Alpha virt. eigenvalues --    5.96232   5.98378   5.99190   5.99820   6.00858
 Alpha virt. eigenvalues --    6.01877   6.03077   6.03943   6.04876   6.06333
 Alpha virt. eigenvalues --    6.07961   6.08425   6.09699   6.11905   6.12660
 Alpha virt. eigenvalues --    6.13331   6.14626   6.16178   6.18820   6.19001
 Alpha virt. eigenvalues --    6.19322   6.21020   6.24089   6.26682   6.28292
 Alpha virt. eigenvalues --    6.28850   6.31149   6.31673   6.35416   6.36191
 Alpha virt. eigenvalues --    6.37915   6.42749   6.47834   6.48943   6.50601
 Alpha virt. eigenvalues --    6.54035   6.54239   6.65356   6.70729   6.74444
 Alpha virt. eigenvalues --    6.76555   6.86885   6.88736   6.92584   6.94402
 Alpha virt. eigenvalues --    6.98899   7.02663   7.12928   7.14447   7.15224
 Alpha virt. eigenvalues --    7.18487   7.25525   7.39055  22.40171  22.41023
 Alpha virt. eigenvalues --   22.48099  22.50641  22.53223  22.53669  22.54034
 Alpha virt. eigenvalues --   22.56109  22.60195  22.61519  22.63141  22.67942
 Alpha virt. eigenvalues --   22.71720  22.72384  22.84156  22.84927  22.88883
 Alpha virt. eigenvalues --   22.90240  22.93061  22.96349  22.98792  23.06298
 Alpha virt. eigenvalues --   23.07134  23.14795  23.16218  23.17485  23.24586
 Alpha virt. eigenvalues --   23.26473  23.30008  23.33793  23.36455  23.37254
 Alpha virt. eigenvalues --   23.41548  23.45982  23.47238  23.49098  23.55111
 Alpha virt. eigenvalues --   23.63712  23.68530  23.72421  23.76414  23.86943
 Alpha virt. eigenvalues --   32.49302  32.50003  32.83011  32.89514  33.04285
 Alpha virt. eigenvalues --   33.07712  33.10628  33.42500  43.93488  43.95959
 Alpha virt. eigenvalues --   43.98025  43.98999
  Beta  occ. eigenvalues -- -256.31848 -30.06517 -25.90336 -25.89674 -25.88314
  Beta  occ. eigenvalues --  -19.26575 -19.25753 -19.18428 -19.15506 -14.43638
  Beta  occ. eigenvalues --  -14.43234 -14.36629 -14.36450 -14.35662 -14.35545
  Beta  occ. eigenvalues --  -14.35172 -14.35045 -10.35914 -10.33491 -10.26967
  Beta  occ. eigenvalues --  -10.26560 -10.24829 -10.24716 -10.23570 -10.23097
  Beta  occ. eigenvalues --  -10.23069 -10.22852 -10.22778 -10.22732 -10.22640
  Beta  occ. eigenvalues --  -10.22632 -10.22599 -10.22549 -10.22162 -10.22059
  Beta  occ. eigenvalues --  -10.21938 -10.21858 -10.21761 -10.21651 -10.21324
  Beta  occ. eigenvalues --  -10.21164 -10.21067 -10.20968 -10.20927 -10.20903
  Beta  occ. eigenvalues --  -10.20894 -10.20881 -10.20643 -10.20526 -10.20509
  Beta  occ. eigenvalues --  -10.20469 -10.20323 -10.20222 -10.20158 -10.19977
  Beta  occ. eigenvalues --  -10.19922 -10.19784 -10.19687 -10.19652  -3.38292
  Beta  occ. eigenvalues --   -2.15903  -2.13739  -2.10121  -1.16628  -1.16568
  Beta  occ. eigenvalues --   -1.04963  -1.04932  -1.02736  -1.00539  -0.95594
  Beta  occ. eigenvalues --   -0.94585  -0.94463  -0.93467  -0.89480  -0.89271
  Beta  occ. eigenvalues --   -0.82469  -0.82328  -0.81429  -0.80514  -0.80415
  Beta  occ. eigenvalues --   -0.79579  -0.79302  -0.79242  -0.78728  -0.77899
  Beta  occ. eigenvalues --   -0.77432  -0.75072  -0.74419  -0.73493  -0.72762
  Beta  occ. eigenvalues --   -0.72223  -0.71773  -0.71567  -0.70845  -0.69988
  Beta  occ. eigenvalues --   -0.69402  -0.68674  -0.67769  -0.65892  -0.64858
  Beta  occ. eigenvalues --   -0.63690  -0.63655  -0.63462  -0.63166  -0.60893
  Beta  occ. eigenvalues --   -0.60705  -0.60239  -0.59713  -0.57312  -0.55836
  Beta  occ. eigenvalues --   -0.55706  -0.55489  -0.54637  -0.53416  -0.53146
  Beta  occ. eigenvalues --   -0.52524  -0.51869  -0.50987  -0.50786  -0.50225
  Beta  occ. eigenvalues --   -0.49990  -0.49470  -0.49314  -0.47979  -0.47903
  Beta  occ. eigenvalues --   -0.47327  -0.47205  -0.47049  -0.46943  -0.46783
  Beta  occ. eigenvalues --   -0.46616  -0.46433  -0.45102  -0.44709  -0.44130
  Beta  occ. eigenvalues --   -0.43820  -0.43550  -0.43354  -0.43084  -0.42883
  Beta  occ. eigenvalues --   -0.42623  -0.42582  -0.42443  -0.42366  -0.42253
  Beta  occ. eigenvalues --   -0.42157  -0.42130  -0.42081  -0.41631  -0.41554
  Beta  occ. eigenvalues --   -0.41408  -0.41283  -0.41187  -0.40989  -0.40604
  Beta  occ. eigenvalues --   -0.40421  -0.40188  -0.39846  -0.39434  -0.39396
  Beta  occ. eigenvalues --   -0.39137  -0.38566  -0.38284  -0.38165  -0.37857
  Beta  occ. eigenvalues --   -0.37653  -0.37355  -0.37121  -0.36831  -0.36568
  Beta  occ. eigenvalues --   -0.36194  -0.36148  -0.35782  -0.35565  -0.35351
  Beta  occ. eigenvalues --   -0.34790  -0.34372  -0.33820  -0.33390  -0.33104
  Beta  occ. eigenvalues --   -0.32780  -0.32191  -0.31794  -0.31091  -0.30777
  Beta  occ. eigenvalues --   -0.30590  -0.30564  -0.30358  -0.28600  -0.28320
  Beta  occ. eigenvalues --   -0.28243  -0.26718  -0.26513  -0.25917  -0.23998
  Beta  occ. eigenvalues --   -0.23751  -0.23025  -0.22777  -0.22464  -0.21784
  Beta  occ. eigenvalues --   -0.19334  -0.17814  -0.17465  -0.12115
  Beta virt. eigenvalues --   -0.06388  -0.04812  -0.03144  -0.02478  -0.01337
  Beta virt. eigenvalues --    0.00608   0.00994   0.02108   0.02731   0.02931
  Beta virt. eigenvalues --    0.03400   0.03696   0.04017   0.04153   0.04739
  Beta virt. eigenvalues --    0.05311   0.05711   0.06062   0.06368   0.06539
  Beta virt. eigenvalues --    0.06690   0.07003   0.07359   0.07474   0.07733
  Beta virt. eigenvalues --    0.07987   0.08147   0.08509   0.08639   0.09224
  Beta virt. eigenvalues --    0.09386   0.09693   0.09777   0.09870   0.10196
  Beta virt. eigenvalues --    0.10406   0.10652   0.10801   0.11159   0.11300
  Beta virt. eigenvalues --    0.11399   0.11969   0.12093   0.12315   0.12477
  Beta virt. eigenvalues --    0.12709   0.12946   0.13103   0.13143   0.13476
  Beta virt. eigenvalues --    0.13566   0.13766   0.14183   0.14269   0.14462
  Beta virt. eigenvalues --    0.14644   0.14873   0.14928   0.15016   0.15168
  Beta virt. eigenvalues --    0.15243   0.15368   0.15578   0.15946   0.16124
  Beta virt. eigenvalues --    0.16362   0.16454   0.16699   0.17005   0.17262
  Beta virt. eigenvalues --    0.17359   0.17609   0.17812   0.17994   0.18299
  Beta virt. eigenvalues --    0.18377   0.18459   0.18668   0.18986   0.19256
  Beta virt. eigenvalues --    0.19470   0.19780   0.20295   0.20440   0.20467
  Beta virt. eigenvalues --    0.20706   0.21031   0.21174   0.21391   0.21770
  Beta virt. eigenvalues --    0.21822   0.22044   0.22092   0.22560   0.22879
  Beta virt. eigenvalues --    0.22978   0.23199   0.23457   0.23489   0.23638
  Beta virt. eigenvalues --    0.23726   0.23909   0.24252   0.24499   0.24572
  Beta virt. eigenvalues --    0.24755   0.25001   0.25292   0.25604   0.25850
  Beta virt. eigenvalues --    0.25997   0.26225   0.26433   0.26555   0.26799
  Beta virt. eigenvalues --    0.27006   0.27263   0.27316   0.27616   0.27790
  Beta virt. eigenvalues --    0.27938   0.28225   0.28438   0.28712   0.28985
  Beta virt. eigenvalues --    0.29351   0.29423   0.29547   0.29953   0.29997
  Beta virt. eigenvalues --    0.30136   0.30313   0.30878   0.30937   0.31243
  Beta virt. eigenvalues --    0.31367   0.31532   0.31754   0.31772   0.32263
  Beta virt. eigenvalues --    0.32584   0.32725   0.32852   0.33104   0.33375
  Beta virt. eigenvalues --    0.33565   0.33722   0.34107   0.34481   0.34705
  Beta virt. eigenvalues --    0.34778   0.35050   0.35252   0.35294   0.35539
  Beta virt. eigenvalues --    0.36024   0.36184   0.36353   0.36455   0.36781
  Beta virt. eigenvalues --    0.37007   0.37236   0.37383   0.37663   0.37750
  Beta virt. eigenvalues --    0.38033   0.38165   0.38453   0.38519   0.38737
  Beta virt. eigenvalues --    0.38902   0.39165   0.39418   0.39607   0.39752
  Beta virt. eigenvalues --    0.39868   0.40155   0.40375   0.40448   0.40617
  Beta virt. eigenvalues --    0.40900   0.41028   0.41346   0.41525   0.41802
  Beta virt. eigenvalues --    0.41833   0.41920   0.42224   0.42407   0.42549
  Beta virt. eigenvalues --    0.42865   0.43146   0.43210   0.43368   0.43392
  Beta virt. eigenvalues --    0.43504   0.43705   0.43864   0.43981   0.44304
  Beta virt. eigenvalues --    0.44475   0.44685   0.44769   0.44929   0.45132
  Beta virt. eigenvalues --    0.45313   0.45341   0.45651   0.45776   0.46027
  Beta virt. eigenvalues --    0.46102   0.46395   0.46521   0.46651   0.46721
  Beta virt. eigenvalues --    0.46899   0.47047   0.47249   0.47493   0.47681
  Beta virt. eigenvalues --    0.47755   0.47854   0.48061   0.48209   0.48311
  Beta virt. eigenvalues --    0.48376   0.48596   0.48818   0.49027   0.49171
  Beta virt. eigenvalues --    0.49364   0.49385   0.49513   0.49658   0.49794
  Beta virt. eigenvalues --    0.50201   0.50308   0.50549   0.50590   0.50990
  Beta virt. eigenvalues --    0.51061   0.51243   0.51344   0.51368   0.51692
  Beta virt. eigenvalues --    0.51855   0.51984   0.52137   0.52366   0.52606
  Beta virt. eigenvalues --    0.52671   0.52756   0.53048   0.53115   0.53210
  Beta virt. eigenvalues --    0.53482   0.53633   0.53778   0.54093   0.54149
  Beta virt. eigenvalues --    0.54489   0.54578   0.54903   0.55032   0.55410
  Beta virt. eigenvalues --    0.55567   0.55676   0.55897   0.56113   0.56187
  Beta virt. eigenvalues --    0.56386   0.56538   0.56714   0.57210   0.57335
  Beta virt. eigenvalues --    0.57422   0.57622   0.57925   0.58093   0.58165
  Beta virt. eigenvalues --    0.58401   0.58742   0.58863   0.59057   0.59370
  Beta virt. eigenvalues --    0.59527   0.59578   0.59772   0.59965   0.60401
[...]
  1690. RY*(   1) H  65                  0.00038     1.74517   
  1691. RY*(   2) H  65                  0.00009     2.72490   
  1692. RY*(   3) H  65                  0.00006     2.50211   
  1693. RY*(   4) H  65                  0.00003     1.37074   
  1694. RY*(   5) H  65                  0.00000     2.95371   
  1695. RY*(   1) H  66                  0.00060     0.92883   
  1696. RY*(   2) H  66                  0.00016     2.31843   
  1697. RY*(   3) H  66                  0.00012     2.31097   
  1698. RY*(   4) H  66                  0.00006     3.11112   
  1699. RY*(   5) H  66                  0.00001     3.34193   
  1700. RY*(   1) H  67                  0.00051     0.99335   
  1701. RY*(   2) H  67                  0.00009     1.83032   
  1702. RY*(   3) H  67                  0.00003     2.03041   
  1703. RY*(   4) H  67                  0.00003     2.16082   
  1704. RY*(   5) H  67                  0.00000     2.89649   
  1705. RY*(   1) H  68                  0.00057     0.91967   
  1706. RY*(   2) H  68                  0.00008     1.81938   
  1707. RY*(   3) H  68                  0.00003     2.15304   
  1708. RY*(   4) H  68                  0.00003     2.05480   
  1709. RY*(   5) H  68                  0.00000     3.00499   
  1710. RY*(   1) H  69                  0.00028     1.29498   
  1711. RY*(   2) H  69                  0.00009     1.92721   
  1712. RY*(   3) H  69                  0.00004     2.14098   
  1713. RY*(   4) H  69                  0.00001     1.79191   
  1714. RY*(   5) H  69                  0.00000     2.99413   
  1715. RY*(   1) H  70                  0.00090     0.66360   
  1716. RY*(   2) H  70                  0.00015     2.28657   
  1717. RY*(   3) H  70                  0.00013     2.16074   
  1718. RY*(   4) H  70                  0.00006     3.07414   
  1719. RY*(   5) H  70                  0.00000     3.25475   
  1720. RY*(   1) H  71                  0.00040     0.92036   
  1721. RY*(   2) H  71                  0.00008     1.96256   
  1722. RY*(   3) H  71                  0.00005     1.95112   
  1723. RY*(   4) H  71                  0.00003     2.21284   
  1724. RY*(   5) H  71                  0.00000     2.96763   
  1725. RY*(   1) H  72                  0.00037     1.05773   
  1726. RY*(   2) H  72                  0.00008     1.71084   
  1727. RY*(   3) H  72                  0.00003     2.15986   
  1728. RY*(   4) H  72                  0.00002     2.07556   
  1729. RY*(   5) H  72                  0.00000     2.90236   
  1730. RY*(   1) H  73                  0.00023     1.36903   
  1731. RY*(   2) H  73                  0.00010     1.90933   
  1732. RY*(   3) H  73                  0.00004     2.17349   
  1733. RY*(   4) H  73                  0.00000     2.92202   
  1734. RY*(   5) H  73                  0.00001     1.83423   
  1735. RY*(   1) H  74                  0.00045     1.01087   
  1736. RY*(   2) H  74                  0.00014     1.66450   
  1737. RY*(   3) H  74                  0.00003     2.54247   
  1738. RY*(   4) H  74                  0.00003     2.72890   
  1739. RY*(   5) H  74                  0.00001     2.09671   
  1740. RY*(   1) H  75                  0.00018     1.56189   
  1741. RY*(   2) H  75                  0.00004     1.29489   
  1742. RY*(   3) H  75                  0.00004     2.10798   
  1743. RY*(   4) H  75                  0.00001     2.09489   
  1744. RY*(   5) H  75                  0.00001     2.55830   
  1745. RY*(   1) H  76                  0.00029     1.21365   
  1746. RY*(   2) H  76                  0.00005     1.49159   
  1747. RY*(   3) H  76                  0.00004     2.06598   
  1748. RY*(   4) H  76                  0.00002     2.01272   
  1749. RY*(   5) H  76                  0.00000     2.85766   
  1750. RY*(   1) H  77                  0.00041     1.07096   
  1751. RY*(   2) H  77                  0.00004     1.63762   
  1752. RY*(   3) H  77                  0.00005     2.14861   
  1753. RY*(   4) H  77                  0.00003     2.06663   
  1754. RY*(   5) H  77                  0.00000     2.95426   
  1755. RY*(   1) H  78                  0.00088     0.69320   
  1756. RY*(   2) H  78                  0.00014     2.15492   
  1757. RY*(   3) H  78                  0.00013     2.27022   
  1758. RY*(   4) H  78                  0.00006     3.06560   
  1759. RY*(   5) H  78                  0.00001     3.27376   
  1760. RY*(   1) H  79                  0.00018     1.61714   
  1761. RY*(   2) H  79                  0.00004     1.46100   
  1762. RY*(   3) H  79                  0.00004     2.02786   
  1763. RY*(   4) H  79                  0.00001     1.71017   
  1764. RY*(   5) H  79                  0.00001     2.82993   
  1765. RY*(   1) H  80                  0.00029     1.18928   
  1766. RY*(   2) H  80                  0.00006     1.60767   
  1767. RY*(   3) H  80                  0.00003     1.95131   
  1768. RY*(   4) H  80                  0.00002     2.03687   
  1769. RY*(   5) H  80                  0.00000     2.89425   
  1770. RY*(   1) H  81                  0.00033     1.15678   
  1771. RY*(   2) H  81                  0.00007     2.05537   
  1772. RY*(   3) H  81                  0.00002     2.04109   
  1773. RY*(   4) H  81                  0.00003     1.73596   
  1774. RY*(   5) H  81                  0.00001     2.97396   
  1775. RY*(   1) H  82                  0.00028     1.10627   
  1776. RY*(   2) H  82                  0.00015     1.50672   
  1777. RY*(   3) H  82                  0.00003     2.69630   
  1778. RY*(   4) H  82                  0.00003     2.54330   
  1779. RY*(   5) H  82                  0.00000     2.05932   
  1780. RY*(   1) H  83                  0.00046     0.91713   
  1781. RY*(   2) H  83                  0.00008     1.95245   
  1782. RY*(   3) H  83                  0.00005     1.93397   
  1783. RY*(   4) H  83                  0.00003     2.19171   
  1784. RY*(   5) H  83                  0.00000     3.02644   
  1785. RY*(   1) H  84                  0.00046     1.00350   
  1786. RY*(   2) H  84                  0.00008     1.74107   
  1787. RY*(   3) H  84                  0.00004     2.16604   
  1788. RY*(   4) H  84                  0.00002     2.04544   
  1789. RY*(   5) H  84                  0.00000     2.99289   
  1790. RY*(   1) H  85                  0.00027     1.18440   
  1791. RY*(   2) H  85                  0.00009     1.93062   
  1792. RY*(   3) H  85                  0.00004     2.16813   
  1793. RY*(   4) H  85                  0.00002     1.87587   
  1794. RY*(   5) H  85                  0.00000     2.99408   
  1795. RY*(   1) H  86                  0.00081     0.62366   
  1796. RY*(   2) H  86                  0.00015     2.28760   
  1797. RY*(   3) H  86                  0.00012     2.19030   
  1798. RY*(   4) H  86                  0.00005     3.09027   
  1799. RY*(   5) H  86                  0.00000     3.23889   
  1800. RY*(   1) H  87                  0.00052     0.94016   
  1801. RY*(   2) H  87                  0.00009     1.80435   
  1802. RY*(   3) H  87                  0.00003     2.13853   
  1803. RY*(   4) H  87                  0.00003     2.12895   
  1804. RY*(   5) H  87                  0.00000     2.97956   
  1805. RY*(   1) H  88                  0.00044     0.94221   
  1806. RY*(   2) H  88                  0.00009     1.83235   
  1807. RY*(   3) H  88                  0.00003     2.13200   
  1808. RY*(   4) H  88                  0.00004     2.19390   
  1809. RY*(   5) H  88                  0.00000     2.92322   
  1810. RY*(   1) H  89                  0.00032     1.13922   
  1811. RY*(   2) H  89                  0.00007     1.89082   
  1812. RY*(   3) H  89                  0.00003     1.91557   
  1813. RY*(   4) H  89                  0.00003     2.11072   
  1814. RY*(   5) H  89                  0.00000     2.98839   
  1903. BD*(   1) C  14 - C  19          0.01027     0.59596   
  1904. BD*(   1) C  14 - C  49          0.01040     0.59346   
  1905. BD*(   2) C  14 - C  49          0.24535     0.06087  1979(v),1920(v),1975(v)
                                                    553(g),1916(r),1908(r)
                                                    1467(g)
  1906. BD*(   1) C  14 - H  66          0.00751     0.48474   
  1907. BD*(   1) C  15 - C  22          0.01034     0.61105   
  1908. BD*(   2) C  15 - C  22          0.19058     0.06739  1924(v),1942(v),1920(v)
                                                    579(g),765(g),1905(r)
  1909. BD*(   1) C  15 - C  30          0.01042     0.57436   
  1910. BD*(   1) C  15 - H  86          0.00675     0.46516   
  1911. BD*(   1) C  16 - C  33          0.01012     0.57465   
  1912. BD*(   1) C  16 - C  38          0.00971     0.58888   
  1913. BD*(   2) C  16 - C  38          0.19679     0.06340  1962(v),30(v),1916(r),606(g)
                                                    1181(g)
  1914. BD*(   1) C  16 - H  78          0.00663     0.46979   
  1915. BD*(   1) C  17 - C  41          0.01032     0.56751   
  1916. BD*(   2) C  17 - C  41          0.20386     0.05858  1975(v),1962(v),30(v)
                                                    1913(r),631(g),1905(r)
                                                    1259(g)
  1917. BD*(   1) C  17 - C  46          0.00993     0.60540   
  1918. BD*(   1) C  17 - H  70          0.00683     0.46681   
  1919. BD*(   1) N  18 - C  19          0.01478     0.47494   
  1920. BD*(   2) N  18 - C  19          0.36575     0.01329  1905(v),1924(v),1908(v)
                                                    30(r),683(g),658(g),1885(r)
                                                    194(r),553(v),687(g)
  1921. BD*(   1) N  18 - C  22          0.01423     0.50413   
  1922. BD*(   1) C  19 - C  20          0.01581     0.52335   
  1923. BD*(   1) C  20 - C  21          0.00957     0.64608   
  1924. BD*(   2) C  20 - C  21          0.11886     0.08814  1908(v),1920(v),1931(v)
                                                    1928(v),1929(v)
  1925. BD*(   1) C  20 - C  24          0.01252     0.39378   
  1926. BD*(   1) C  21 - C  22          0.01674     0.51406   
  1927. BD*(   1) C  21 - C  23          0.00953     0.36994   
  1928. BD*(   1) C  23 - H  87          0.00479     0.41925   
  1929. BD*(   1) C  23 - H  88          0.00436     0.42050   
  1930. BD*(   1) C  23 - H  89          0.00246     0.42499   
  1931. BD*(   1) C  24 - C  25          0.00869     0.36004   
  1932. BD*(   1) C  24 - H  60          0.00633     0.43370   
  1933. BD*(   1) C  24 - H  61          0.00628     0.42678   
  1934. BD*(   1) C  25 - C  26          0.02909     0.38613   
  1935. BD*(   1) C  25 - H  58          0.00488     0.41517   
  1936. BD*(   1) C  25 - H  59          0.00617     0.39956   
  1937. BD*(   1) C  26 - O  27          0.01713     0.56477   
  1938. BD*(   2) C  26 - O  27          0.12215     0.02755  1937(g),1936(v),867(g)
                                                    874(g),1931(v)
  1939. BD*(   1) C  26 - O  28          0.03524     0.51971   
  1940. BD*(   1) O  28 - H  57          0.00718     0.39251   
  1941. BD*(   1) N  29 - C  30          0.01305     0.52686   
  1942. BD*(   2) N  29 - C  30          0.30426     0.03075  1908(v),1946(v),197(r)
                                                    971(g),945(g),579(v),194(r)
                                                    1899(r)
  1943. BD*(   1) N  29 - C  33          0.01396     0.50357   
  1944. BD*(   1) C  30 - C  31          0.01691     0.50025   
  1945. BD*(   1) C  31 - C  32          0.00917     0.61290   
  1946. BD*(   2) C  31 - C  32          0.16155     0.08403  1942(v),206(v),1951(v)
                                                    1953(v),1954(v),1950(v)
                                                    1945(g),996(g)
  1947. BD*(   1) C  31 - C  34          0.00912     0.38613   
  1948. BD*(   1) C  32 - C  33          0.01558     0.51150   
  1949. BD*(   1) C  32 - C  35          0.01048     0.40347   
  1950. BD*(   1) C  34 - H  83          0.00413     0.42717   
  1951. BD*(   1) C  34 - H  84          0.00485     0.42408   
  1952. BD*(   1) C  34 - H  85          0.00266     0.42911   
  1953. BD*(   1) C  35 - C  36          0.00291     0.39354   
  1954. BD*(   1) C  35 - H  82          0.00612     0.46370   
  1955. BD*(   1) C  36 - H  79          0.00146     0.42091   
  1956. BD*(   1) C  36 - H  80          0.00241     0.41757   
  1957. BD*(   1) C  36 - H  81          0.00295     0.42419   
  1958. BD*(   1) N  37 - C  38          0.01416     0.48633   
  1959. BD*(   1) N  37 - C  41          0.01387     0.48677   
  1960. BD*(   1) C  38 - C  39          0.01581     0.50976   
  1961. BD*(   1) C  39 - C  40          0.01031     0.60837   
  1962. BD*(   2) C  39 - C  40          0.13158     0.08853  1913(v),1916(v),208(v)
                                                    1967(v),1961(g),1969(v)
                                                    1970(v),1966(v)
  1963. BD*(   1) C  39 - C  42          0.00885     0.38086   
  1964. BD*(   1) C  40 - C  41          0.01432     0.52086   
  1965. BD*(   1) C  40 - C  43          0.01119     0.42228   
  1966. BD*(   1) C  42 - H  71          0.00341     0.42411   
  1967. BD*(   1) C  42 - H  72          0.00406     0.42171   
  1968. BD*(   1) C  42 - H  73          0.00276     0.42804   
  1969. BD*(   1) C  43 - C  44          0.00406     0.38439   
  1970. BD*(   1) C  43 - H  74          0.00679     0.46524   
  1971. BD*(   1) C  44 - H  75          0.00135     0.41826   
  1972. BD*(   1) C  44 - H  76          0.00251     0.41656   
  1973. BD*(   1) C  44 - H  77          0.00298     0.42106   
  1974. BD*(   1) N  45 - C  46          0.01512     0.48033   
  1975. BD*(   2) N  45 - C  46          0.32614     0.01724  1916(v),1979(v),1905(v)
                                                    197(r),1387(g),1899(r)
                                                    1361(g),631(v),191(r),195(r)
                                                    1902(r)
  1976. BD*(   1) N  45 - C  49          0.01434     0.48872   
  1977. BD*(   1) C  46 - C  47          0.01625     0.51642   
  1978. BD*(   1) C  47 - C  48          0.00980     0.60547   
  1979. BD*(   2) C  47 - C  48          0.16862     0.07336  1905(v),1975(v),1986(v)
                                                    1984(v),1983(v),1987(v)
  1980. BD*(   1) C  47 - C  50          0.00936     0.37587   
  1981. BD*(   1) C  48 - C  49          0.01605     0.51052   
  1982. BD*(   1) C  48 - C  51          0.01169     0.37277   
  1983. BD*(   1) C  50 - H  67          0.00436     0.41286   
  1984. BD*(   1) C  50 - H  68          0.00532     0.41029   
  1985. BD*(   1) C  50 - H  69          0.00300     0.42326   
  1986. BD*(   1) C  51 - C  52          0.00828     0.33824   
  1987. BD*(   1) C  51 - H  64          0.00614     0.41951   
  1988. BD*(   1) C  51 - H  65          0.00589     0.43196   
  1989. BD*(   1) C  52 - C  53          0.03878     0.34067   
  1990. BD*(   1) C  52 - H  62          0.00598     0.39015   
  1991. BD*(   1) C  52 - H  63          0.00540     0.38176   
  1992. BD*(   1) C  53 - O  54          0.03446     0.46576   
  1993. BD*(   1) C  53 - O  55          0.02519     0.50570   
  1994. BD*(   2) C  53 - O  55          0.09191     0.01652   
  1995. BD*(   1) O  54 - H  56          0.00704     0.36568   
       -------------------------------
              Total Lewis  155.15307  ( 96.7613%)
        Valence non-Lewis    4.87975  (  3.0433%)
        Rydberg non-Lewis    0.31346  (  0.1955%)
       -------------------------------
            Total unit  3  160.34628  (100.0000%)
           Charge unit  3    1.65372
 1\1\GINC-NODE819\SP\UPBE1PBE\def2TZVP\C42H46Fe1N8O4(5)\ZHARTOVSKA\04-N
 ov-2022\0\\# PBE1PBE/def2TZVP empiricaldispersion=GD3BJ int=(grid=ultr
 afine) geom=check pop=nbo\\1gu2_II_Q\\0,5\C,0,7.741,3.503,14.891\C,0,9
 .027,3.472,14.126\N,0,9.297,4.319,13.076\C,0,10.117,2.702,14.195\C,0,1
 0.507,4.054,12.555\N,0,11.039,3.068,13.231\C,0,16.892,-0.274,9.982\C,0
 ,16.143999,0.552,10.979\N,0,16.707001,1.622,11.66\C,0,14.864,0.516,11.
 388\C,0,15.795,2.193,12.429\N,0,14.639,1.534,12.28\Fe,0,12.834,2.272,1
 2.755\C,0,13.059,3.697,9.65\C,0,11.207,-0.399,11.392\C,0,13.062,0.642,
 15.771\C,0,14.138,5.119,14.157\N,0,12.194,1.775,10.922\C,0,12.388,2.48
 9,9.727\C,0,11.81,1.765,8.629\C,0,11.25,0.648,9.123\C,0,11.521,0.629,1
 0.54\C,0,10.495,-0.467,8.356\C,0,11.841,2.227,7.162\C,0,13.046,1.656,6
 .392\C,0,13.086,2.124,4.978\O,0,14.201,2.26,4.429\O,0,12.037,2.373,4.3
 61\N,0,12.262,0.47,13.431\C,0,11.628,-0.511,12.721\C,0,11.497,-1.703,1
 3.549\C,0,12.043,-1.418,14.765\C,0,12.495,-0.047,14.694\C,0,10.865,-3.
 035,13.109\C,0,12.161,-2.307,16.025\C,0,12.955,-3.58,15.74\N,0,13.459,
 2.785,14.588\C,0,13.44,1.975,15.725\C,0,13.845,2.753,16.875999\C,0,14.
 127,4.016,16.437\C,0,13.9,4.038,15.019\C,0,13.855,2.166,18.302\C,0,14.
 506,5.269,17.226999\C,0,15.76236037,5.26706782,18.11759144\N,0,13.456,
 4.028,12.049\C,0,14.006,5.084,12.789\C,0,14.516,6.093,11.899\C,0,14.38
 3,5.614,10.626\C,0,13.61,4.395,10.712\C,0,15.14,7.432,12.331\C,0,15.00
 2,6.242,9.351\C,0,14.241,7.503,8.87\C,0,13.115,7.209,7.901\O,0,12.172,
 8.037,7.738\O,0,13.146,6.139,7.238\H,0,12.36873263,8.95893122,7.556508
 71\H,0,12.07696195,2.7319584,3.4715328\H,0,13.94670405,1.95987592,6.88
 321445\H,0,12.98887598,0.58757197,6.40191928\H,0,11.88901547,3.2956223
 2,7.13668486\H,0,10.94016655,1.909106,6.6799808\H,0,13.8331058,8.00098
 863,9.72471027\H,0,14.93800244,8.15967596,8.39264868\H,0,16.01706165,6
 .51027374,9.55734693\H,0,14.99028728,5.51314018,8.56772089\H,0,13.1618
 523,4.1329459,8.67826311\H,0,16.08323104,7.56007446,11.84231592\H,0,14
 .48597131,8.23425363,12.05982556\H,0,15.28460118,7.43254198,13.3911840
 4\H,0,14.44649026,6.04332018,14.59900222\H,0,14.7309458,2.49882418,18.
 81857238\H,0,12.98367985,2.49451121,18.82904989\H,0,13.85731283,1.0973
 7582,18.2478057\H,0,13.89830518,6.14721401,17.16106599\H,0,16.55857529
 ,5.77256829,17.61220933\H,0,15.54809593,5.76947565,19.03768769\H,0,16.
 05333561,4.25781702,18.32166554\H,0,13.21317257,0.10795988,16.68579397
 \H,0,13.88672375,-3.54424957,16.26489309\H,0,12.39415423,-4.43076581,1
 6.0664193\H,0,13.14043899,-3.65691348,14.68900205\H,0,11.73919763,-2.0
 6097406,16.97707878\H,0,11.51503653,-3.84274482,13.37338761\H,0,9.9219
 4991,-3.16123136,13.59851217\H,0,10.71849322,-3.02735466,12.04910505\H
 ,0,10.58728554,-1.18179612,11.00718288\H,0,11.08418822,-1.3601699,8.35
 381561\H,0,9.5582799,-0.65881147,8.83627472\H,0,10.32123406,-0.1518823
 ,7.34832633\H,0,17.82690069,-0.58062057,10.40252886\H,0,16.31394392,-1
 .13826952,9.72943443\H,0,17.07042231,0.30580735,9.10058698\H,0,17.6592
 3464,1.91701376,11.58114588\H,0,15.95423003,3.03955825,13.06373217\H,0
 ,14.13318142,-0.19673012,11.06734445\H,0,7.88145868,4.04477169,15.8029
 5109\H,0,6.98761083,3.98398187,14.30281534\H,0,7.43453476,2.50240916,1
 5.11415249\H,0,10.25750645,1.90974449,14.9003291\H,0,8.67881284,5.0325
 7559,12.74637215\H,0,10.95827742,4.56234659,11.72866324\\Version=AM64L
 -G16RevA.03\State=5-A\HF=-3628.8230265\S2=6.385028\S2-1=0.\S2A=6.01552
 3\RMSD=1.764e-09\Dipole=-0.455627,1.9708187,0.2116483\Quadrupole=8.960
 2226,17.3602282,-26.3204507,-4.8972372,6.1834142,-8.9439235\PG=C01 [X(
 C42H46Fe1N8O4)]\\@


 MISERY NO LONGER LOVES COMPANY.  NOWADAYS IT INSISTS ON IT.

                                              -- BAKER'S LAW
 Job cpu time:      15 days 21 hours 23 minutes 14.5 seconds.
 Elapsed time:       3 days 23 hours 42 minutes 25.2 seconds.
 File lengths (MBytes):  RWF=   3654 Int=      0 D2E=      0 Chk=    305 Scr=      1
 Normal termination of Gaussian 16 at Fri Nov  4 15:19:06 2022.
