 Entering Gaussian System, Link 0=g16
 Input=/net/homes/chemie/zhartovska/work/BioModel/Konrad/1a6k/1a6k12/1a6k12.com
 Output=/net/homes/chemie/zhartovska/work/BioModel/Konrad/1a6k/1a6k12/1a6k12.log
 Initial command:
 /afs/math/software/gaussian/g16.A03/g16/l1.exe "/scratch/zhartovska_gaussian.sGqW18p/Gau-27952.inp" -scrdir="/scratch/zhartovska_gaussian.sGqW18p/"
 Entering Link 1 = /afs/math/software/gaussian/g16.A03/g16/l1.exe PID=     27953.
  
 Copyright (c) 1988,1990,1992,1993,1995,1998,2003,2009,2016,
            Gaussian, Inc.  All Rights Reserved.
  
 This is part of the Gaussian(R) 16 program.  It is based on
 the Gaussian(R) 09 system (copyright 2009, Gaussian, Inc.),
 the Gaussian(R) 03 system (copyright 2003, Gaussian, Inc.),
 the Gaussian(R) 98 system (copyright 1998, Gaussian, Inc.),
 the Gaussian(R) 94 system (copyright 1995, Gaussian, Inc.),
 the Gaussian 92(TM) system (copyright 1992, Gaussian, Inc.),
 the Gaussian 90(TM) system (copyright 1990, Gaussian, Inc.),
 the Gaussian 88(TM) system (copyright 1988, Gaussian, Inc.),
 the Gaussian 86(TM) system (copyright 1986, Carnegie Mellon
 University), and the Gaussian 82(TM) system (copyright 1983,
 Carnegie Mellon University). Gaussian is a federally registered
 trademark of Gaussian, Inc.
  
 This software contains proprietary and confidential information,
 including trade secrets, belonging to Gaussian, Inc.
  
 This software is provided under written license and may be
 used, copied, transmitted, or stored only in accord with that
 written license.
  
 The following legend is applicable only to US Government
 contracts under FAR:
  
                    RESTRICTED RIGHTS LEGEND
  
 Use, reproduction and disclosure by the US Government is
 subject to restrictions as set forth in subparagraphs (a)
 and (c) of the Commercial Computer Software - Restricted
 Rights clause in FAR 52.227-19.
  
 Gaussian, Inc.
 340 Quinnipiac St., Bldg. 40, Wallingford CT 06492
  
  
 ---------------------------------------------------------------
 Warning -- This program may not be used in any manner that
 competes with the business of Gaussian, Inc. or will provide
 assistance to any competitor of Gaussian, Inc.  The licensee
 of this program is prohibited from giving any competitor of
 Gaussian, Inc. access to this program.  By using this program,
 the user acknowledges that Gaussian, Inc. is engaged in the
 business of creating and licensing software in the field of
 computational chemistry and represents and warrants to the
 licensee that it is not a competitor of Gaussian, Inc. and that
 it will not use this program in any manner prohibited above.
 ---------------------------------------------------------------
  

 Cite this work as:
 Gaussian 16, Revision A.03,
 M. J. Frisch, G. W. Trucks, H. B. Schlegel, G. E. Scuseria, 
 M. A. Robb, J. R. Cheeseman, G. Scalmani, V. Barone, 
 G. A. Petersson, H. Nakatsuji, X. Li, M. Caricato, A. V. Marenich, 
 J. Bloino, B. G. Janesko, R. Gomperts, B. Mennucci, H. P. Hratchian, 
 J. V. Ortiz, A. F. Izmaylov, J. L. Sonnenberg, D. Williams-Young, 
 F. Ding, F. Lipparini, F. Egidi, J. Goings, B. Peng, A. Petrone, 
 T. Henderson, D. Ranasinghe, V. G. Zakrzewski, J. Gao, N. Rega, 
 G. Zheng, W. Liang, M. Hada, M. Ehara, K. Toyota, R. Fukuda, 
 J. Hasegawa, M. Ishida, T. Nakajima, Y. Honda, O. Kitao, H. Nakai, 
 T. Vreven, K. Throssell, J. A. Montgomery, Jr., J. E. Peralta, 
 F. Ogliaro, M. J. Bearpark, J. J. Heyd, E. N. Brothers, K. N. Kudin, 
 V. N. Staroverov, T. A. Keith, R. Kobayashi, J. Normand, 
 K. Raghavachari, A. P. Rendell, J. C. Burant, S. S. Iyengar, 
 J. Tomasi, M. Cossi, J. M. Millam, M. Klene, C. Adamo, R. Cammi, 
 J. W. Ochterski, R. L. Martin, K. Morokuma, O. Farkas, 
 J. B. Foresman, and D. J. Fox, Gaussian, Inc., Wallingford CT, 2016.
 
 ******************************************
 Gaussian 16:  ES64L-G16RevA.03 25-Dec-2016
                 8-Sep-2022 
 ******************************************
 %nprocs=12
 Will use up to   12 processors via shared memory.
 %mem=16GB
 %oldchk=1a6k_II_S.chk
 %chk=1a6k_III_D.chk
 Copying data from "1a6k_II_S.chk" to current chk file "1a6k_III_D.chk"
 IOpt=  2 FromEx=T IUOpen= 4 IOptOp= 5 NList=   0 IFRang= 0 IUIn= 4 IUOut= 2.
 ----------------------------------------------------------------------
 # PBE1PBE/def2TZVP empiricaldispersion=GD3BJ scf=maxcycle=999 geom=che
 ck pop=nbo
 ----------------------------------------------------------------------
 1/29=2,38=1,172=1/1;
 2/12=2,40=1/2;
 3/5=44,7=101,11=2,14=-4,25=1,30=1,74=-13,124=41/1,2,3;
 4//1;
 5/5=2,7=999,38=5/2;
 6/7=2,8=2,9=2,10=2,28=1,40=1/1,7;
 99/5=1,9=1/99;
 ----------
 1a6k_III_D
 ----------
 Structure from the checkpoint file:  "1a6k_III_D.chk"
 Charge =  1 Multiplicity = 2
 Z-Matrix found in chk file.
 C,0,9.492,29.440001,2.541
 C,0,10.712,29.318001,3.393
 N,0,11.007,30.238001,4.345
 C,0,11.762,28.437,3.339
 C,0,12.181,29.896999,4.878
 N,0,12.674,28.809,4.311
 Fe,0,14.594,27.968,4.72
 C,0,15.966,31.09,4.996
 C,0,13.915,27.936001,8.079
 C,0,13.416,24.757,4.507
 C,0,15.491,27.867001,1.465
 N,0,14.946,29.202,6.28
 C,0,15.449,30.523001,6.183
 C,0,15.363,31.157,7.454
 C,0,14.82,30.256001,8.353
 C,0,14.534,29.1,7.582
 C,0,14.555,30.398001,9.834
 C,0,15.764,32.603001,7.755
 C,0,14.507,33.476002,7.966
 C,0,13.62,33.509998,6.704
 O,0,12.466,33.068001,6.832
 O,0,14.135,33.952,5.64
 N,0,13.856,26.594999,6.046
 C,0,13.58,26.785,7.394
 C,0,12.943,25.636,7.942
 C,0,12.796,24.715,6.966
 C,0,13.334,25.334,5.735
 C,0,12.508,25.525,9.403
 C,0,12.252,23.320999,7.02
 C,0,12.407,22.542999,8.069
 N,0,14.4,26.598,3.235
 C,0,13.945,25.284,3.32
 C,0,14.146,24.589001,2.11
 C,0,14.75,25.464001,1.255
 C,0,14.944,26.698999,1.957
 C,0,13.788,23.136999,1.853
 C,0,15.347,25.237,-0.099
 C,0,15.181,24.205,-0.871
 N,0,15.52,29.250999,3.447
 C,0,15.745,29.018,2.123
 C,0,16.482,30.193001,1.605
 C,0,16.632,31.055,2.561
 C,0,16.017,30.532,3.751
 C,0,16.954,30.298,0.127
 C,0,17.452999,32.355,2.535
 C,0,18.951,32.058998,2.787
 C,0,19.837,33.250999,2.699
 O,0,20.240999,33.617001,1.585
 O,0,20.27,33.77,3.722
 O,0,16.525,27.106001,4.962
 H,0,9.70419031,29.0710251,1.55930144
 H,0,8.6969299,28.86864515,2.9726434
 H,0,9.2005601,30.46776472,2.48046469
 H,0,11.85852264,27.61061793,2.66618796
 H,0,10.44742499,31.02652513,4.60015781
 H,0,12.66363881,30.43645646,5.6660009
 H,0,17.37633133,27.54966188,4.962
 H,0,15.82293541,27.76075691,4.962
 H,0,13.31919088,22.57333311,8.62746902
 H,0,11.62091384,21.87970286,8.36396912
 H,0,11.7171759,22.94372358,6.17352116
 H,0,13.24401061,25.98321394,10.03007923
 H,0,11.56896924,26.02088759,9.53421255
 H,0,12.40648993,24.49319075,9.6675097
 H,0,13.67346492,27.94519892,9.12134169
 H,0,15.35257035,30.94823716,10.28789613
 H,0,13.63234209,30.91899322,9.98289421
 H,0,14.49245622,29.4273147,10.27982101
 H,0,13.02291944,23.76433016,4.43632991
 H,0,14.5528405,22.50482949,2.25335075
 H,0,12.85486359,22.91075917,2.32519909
 H,0,13.70385204,22.97152843,0.79922649
 H,0,15.96027735,23.47813803,-0.96742868
 H,0,14.26503471,24.0820867,-1.41025866
 H,0,15.98229778,26.01230147,-0.47343873
 H,0,15.74718928,27.85898664,0.42615313
 H,0,17.89469238,29.80015652,0.01677426
 H,0,16.22981868,29.83773794,-0.51223411
 H,0,17.06225553,31.32835166,-0.14049992
 H,0,17.34203994,32.82298204,1.57918574
 H,0,17.09142995,33.0155708,3.2951408
 H,0,19.0522952,31.63334352,3.76345151
 H,0,19.27958556,31.33914263,2.06676408
 H,0,21.21732679,33.8403419,3.86065054
 H,0,16.36675141,32.0782105,5.08396762
 H,0,16.3636287,32.62654858,8.64088427
 H,0,16.33029991,32.99104423,6.93425226
 H,0,14.81112463,34.47346653,8.20573469
 H,0,13.93901555,33.07868159,8.78112585
 H,0,15.08988726,33.98995872,5.54862466
 Recover connectivity data from disk.
 Stoichiometry    C38H40FeN6O5(1+,2)
 Framework group  C1[X(C38H40FeN6O5)]
 Deg. of freedom   264
 Full point group                 C1      NOp   1
 Largest Abelian subgroup         C1      NOp   1
 Largest concise Abelian subgroup C1      NOp   1
                         Standard orientation:                         
 ---------------------------------------------------------------------
 Center     Atomic      Atomic             Coordinates (Angstroms)
 Number     Number       Type             X           Y           Z
 ---------------------------------------------------------------------
      1          6           0       -1.628464   -0.035347    5.376603
      2          6           0       -1.246317   -0.363958    3.971197
      3          7           0       -0.384630   -1.372420    3.687947
      4          6           0       -1.530114    0.272890    2.789900
      5          6           0       -0.188023   -1.369426    2.368862
      6          7           0       -0.866560   -0.399928    1.778997
      7         26           0       -0.752908    0.099032   -0.294427
      8          6           0        2.609922   -0.530376   -0.320170
      9          6           0       -1.399339   -3.153495   -1.159378
     10          6           0       -4.109755    0.760360   -0.488845
     11          6           0       -0.131812    3.366302    0.296355
     12          7           0        0.357060   -1.523923   -0.757296
     13          6           0        1.763245   -1.623084   -0.614916
     14          6           0        2.167268   -2.970271   -0.830887
     15          6           0        1.040221   -3.721774   -1.113479
     16          6           0       -0.041543   -2.810355   -1.005407
     17          6           0        0.908708   -5.186288   -1.462268
     18          6           0        3.600327   -3.496641   -0.723195
     19          6           0        3.766799   -4.342399    0.558866
     20          6           0        3.498716   -3.508402    1.828964
     21          8           0        2.561911   -3.891291    2.549556
     22          8           0        4.223241   -2.493865    2.025092
     23          7           0       -2.424873   -0.976527   -0.779977
     24          6           0       -2.507206   -2.337492   -1.045260
     25          6           0       -3.864746   -2.736750   -1.200029
     26          6           0       -4.656428   -1.656828   -1.028466
     27          6           0       -3.750216   -0.531330   -0.712240
     28          6           0       -4.296299   -4.172073   -1.499493
     29          6           0       -6.142090   -1.512924   -1.147596
     30          6           0       -6.850195   -2.199454   -2.017639
     31          7           0       -1.916101    1.743657   -0.045526
     32          6           0       -3.292748    1.867833   -0.219508
     33          6           0       -3.702619    3.214792   -0.147178
     34          6           0       -2.574123    3.953948    0.056811
     35          6           0       -1.459253    3.052842    0.083881
     36          6           0       -5.124967    3.717419   -0.310928
     37          6           0       -2.374798    5.437669    0.046976
     38          6           0       -3.291499    6.356809    0.105326
     39          7           0        0.922273    1.213805   -0.020313
     40          6           0        0.940878    2.547587    0.259988
     41          6           0        2.365053    2.946215    0.330286
     42          6           0        3.107949    1.901220    0.141689
     43          6           0        2.254263    0.761191   -0.056825
     44          6           0        2.810032    4.410884    0.604205
     45          6           0        4.636883    1.849962   -0.014667
     46          6           0        5.048924    2.203065   -1.464035
     47          6           0        6.518479    2.258581   -1.689718
     48          8           0        7.129012    3.301571   -1.411168
     49          8           0        7.084536    1.339938   -2.272002
     50          8           0       -0.637587    0.758156   -2.314977
     51          1           0       -1.766485    1.021518    5.470866
     52          1           0       -2.539967   -0.537648    5.625110
     53          1           0       -0.852808   -0.354411    6.041025
     54          1           0       -2.152704    1.135001    2.671386
     55          1           0        0.027266   -2.002032    4.346681
     56          1           0        0.440301   -2.064701    1.852432
     57          1           0        0.148602    0.923725   -2.840423
     58          1           0       -0.386698    0.347295   -1.484406
     59          1           0       -6.450282   -2.406860   -2.988182
     60          1           0       -7.826204   -2.550589   -1.754942
     61          1           0       -6.646479   -0.825879   -0.500711
     62          1           0       -3.607393   -4.615395   -2.187805
     63          1           0       -4.307246   -4.738027   -0.591486
     64          1           0       -5.276374   -4.167621   -1.928833
     65          1           0       -1.597399   -4.178253   -1.395055
     66          1           0        1.722895   -5.477324   -2.092583
     67          1           0        0.925886   -5.769483   -0.565335
     68          1           0       -0.015774   -5.348995   -1.975843
     69          1           0       -5.160500    0.959493   -0.523221
     70          1           0       -5.362917    3.781600   -1.352159
     71          1           0       -5.800169    3.039537    0.168111
     72          1           0       -5.214785    4.685546    0.135795
     73          1           0       -3.561369    6.899979   -0.776170
     74          1           0       -3.776465    6.570483    1.034870
     75          1           0       -1.362953    5.780033   -0.015130
     76          1           0        0.073780    4.392487    0.519009
     77          1           0        2.818135    4.958964   -0.314731
     78          1           0        2.125910    4.869694    1.287119
     79          1           0        3.792224    4.411782    1.028700
     80          1           0        5.083889    2.550382    0.659497
     81          1           0        4.982438    0.864866    0.220020
     82          1           0        4.632863    1.469395   -2.122458
     83          1           0        4.632222    3.157017   -1.711492
     84          1           0        7.573877    1.512728   -3.079645
     85          1           0        3.658740   -0.741367   -0.301077
     86          1           0        3.819598   -4.102524   -1.577435
     87          1           0        4.279191   -2.670153   -0.692197
     88          1           0        4.765215   -4.725285    0.597124
     89          1           0        3.079487   -5.161879    0.527997
     90          1           0        4.708308   -2.102074    1.295154
 ---------------------------------------------------------------------
 Rotational constants (GHZ):           0.0698492           0.0507222           0.0375474
 Standard basis: def2TZVP (5D, 7F)
 There are  2056 symmetry adapted cartesian basis functions of A   symmetry.
 There are  1804 symmetry adapted basis functions of A   symmetry.
  1804 basis functions,  2921 primitive gaussians,  2056 cartesian basis functions
   188 alpha electrons      187 beta electrons
       nuclear repulsion energy      7658.2838974337 Hartrees.
 NAtoms=   90 NActive=   90 NUniq=   90 SFac= 1.00D+00 NAtFMM=   60 NAOKFM=T Big=T
 Integral buffers will be    131072 words long.
 Raffenetti 2 integral format.
 Two-electron integral symmetry is turned on.
 Nuclear repulsion after empirical dispersion term =     7658.1562774620 Hartrees.
 One-electron integrals computed using PRISM.
   1 Symmetry operations used in ECPInt.
 ECPInt:  NShTT=  255255 NPrTT=  790653 LenC2=  187420 LenP2D=  376255.
 LDataN:  DoStor=T MaxTD1= 6 Len=  172
 NBasis=  1804 RedAO= T EigKep=  3.15D-06  NBF=  1804
 NBsUse=  1804 1.00D-06 EigRej= -1.00D+00 NBFU=  1804
 ExpMin= 4.20D-02 ExpMax= 3.01D+05 ExpMxC= 2.91D+03 IAcc=3 IRadAn=         5 AccDes= 0.00D+00
 Harris functional with IExCor= 1009 and IRadAn=       5 diagonalized for initial guess.
 HarFok:  IExCor= 1009 AccDes= 0.00D+00 IRadAn=         5 IDoV= 1 UseB2=F ITyADJ=14
 ICtDFT=  3500011 ScaDFX=  1.000000  1.000000  1.000000  1.000000
 FoFCou: FMM=F IPFlag=           0 FMFlag=      100000 FMFlg1=        2001
         NFxFlg=           0 DoJE=T BraDBF=F KetDBF=T FulRan=T
         wScrn=  0.000000 ICntrl=       500 IOpCl=  0 I1Cent=   200000004 NGrid=           0
         NMat0=    1 NMatS0=      1 NMatT0=    0 NMatD0=    1 NMtDS0=    0 NMtDT0=    0
 Petite list used in FoFCou.
 Initial guess <Sx>= 0.0000 <Sy>= 0.0000 <Sz>= 0.5000 <S**2>= 0.7500 S= 0.5000
 Requested convergence on RMS density matrix=1.00D-08 within 999 cycles.
 Requested convergence on MAX density matrix=1.00D-06.
 Requested convergence on             energy=1.00D-06.
 No special actions if energy rises.
 EnCoef did   100 forward-backward iterations
 EnCoef did     5 forward-backward iterations
 EnCoef did     3 forward-backward iterations
 Rare condition: small coef for last iteration:  0.000D+00
 Restarting incremental Fock formation.
 Rare condition: small coef for last iteration:  0.000D+00
 Rare condition: small coef for last iteration:  0.000D+00
 Restarting incremental Fock formation.
 Restarting incremental Fock formation.
 Restarting incremental Fock formation.
 Restarting incremental Fock formation.
 Restarting incremental Fock formation.
 Restarting incremental Fock formation.
 Restarting incremental Fock formation.
 Restarting incremental Fock formation.
 Restarting incremental Fock formation.
 Restarting incremental Fock formation.
 Restarting incremental Fock formation.
 Restarting incremental Fock formation.
 SCF Done:  E(UPBE1PBE) =  -3438.27717776     A.U. after  264 cycles
            NFock=264  Conv=0.14D-08     -V/T= 2.0032
 <Sx>= 0.0000 <Sy>= 0.0000 <Sz>= 0.5000 <S**2>= 0.9572 S= 0.5987
 <L.S>= 0.000000000000E+00
 Annihilation of the first spin contaminant:
 S**2 before annihilation     0.9572,   after     0.7619

 **********************************************************************

            Population analysis using the SCF density.

 **********************************************************************

 Orbital symmetries:
 Alpha Orbitals:
       Occupied  (A) (A) (A) (A) (A) (A) (A) (A) (A) (A) (A) (A)
                 (A) (A) (A) (A) (A) (A) (A) (A) (A) (A) (A) (A)
                 (A) (A) (A) (A) (A) (A) (A) (A) (A) (A) (A) (A)
                 (A) (A) (A) (A) (A) (A) (A) (A) (A) (A) (A) (A)
                 (A) (A) (A) (A) (A) (A) (A) (A) (A) (A) (A) (A)
                 (A) (A) (A) (A) (A) (A) (A) (A) (A) (A) (A) (A)
                 (A) (A) (A) (A) (A) (A) (A) (A) (A) (A) (A) (A)
                 (A) (A) (A) (A) (A) (A) (A) (A) (A) (A) (A) (A)
                 (A) (A) (A) (A) (A) (A) (A) (A) (A) (A) (A) (A)
                 (A) (A) (A) (A) (A) (A) (A) (A) (A) (A) (A) (A)
                 (A) (A) (A) (A) (A) (A) (A) (A) (A) (A) (A) (A)
                 (A) (A) (A) (A) (A) (A) (A) (A) (A) (A) (A) (A)
                 (A) (A) (A) (A) (A) (A) (A) (A) (A) (A) (A) (A)
                 (A) (A) (A) (A) (A) (A) (A) (A) (A) (A) (A) (A)
                 (A) (A) (A) (A) (A) (A) (A) (A) (A) (A) (A) (A)
                 (A) (A) (A) (A) (A) (A) (A) (A)
       Virtual   (A) (A) (A) (A) (A) (A) (A) (A) (A) (A) (A) (A)
                 (A) (A) (A) (A) (A) (A) (A) (A) (A) (A) (A) (A)
                 (A) (A) (A) (A) (A) (A) (A) (A) (A) (A) (A) (A)
                 (A) (A) (A) (A) (A) (A) (A) (A) (A) (A) (A) (A)
                 (A) (A) (A) (A) (A) (A) (A) (A) (A) (A) (A) (A)
                 (A) (A) (A) (A) (A) (A) (A) (A) (A) (A) (A) (A)
                 (A) (A) (A) (A) (A) (A) (A) (A) (A) (A) (A) (A)
                 (A) (A) (A) (A) (A) (A) (A) (A) (A) (A) (A) (A)
                 (A) (A) (A) (A) (A) (A) (A) (A) (A) (A) (A) (A)
                 (A) (A) (A) (A) (A) (A) (A) (A) (A) (A) (A) (A)
                 (A) (A) (A) (A) (A) (A) (A) (A) (A) (A) (A) (A)
                 (A) (A) (A) (A) (A) (A) (A) (A) (A) (A) (A) (A)
                 (A) (A) (A) (A) (A) (A) (A) (A) (A) (A) (A) (A)
                 (A) (A) (A) (A) (A) (A) (A) (A) (A) (A) (A) (A)
                 (A) (A) (A) (A) (A) (A) (A) (A) (A) (A) (A) (A)
                 (A) (A) (A) (A) (A) (A) (A) (A) (A) (A) (A) (A)
                 (A) (A) (A) (A) (A) (A) (A) (A) (A) (A) (A) (A)
                 (A) (A) (A) (A) (A) (A) (A) (A) (A) (A) (A) (A)
                 (A) (A) (A) (A) (A) (A) (A) (A) (A) (A) (A) (A)
                 (A) (A) (A) (A) (A) (A) (A) (A) (A) (A) (A) (A)
                 (A) (A) (A) (A) (A) (A) (A) (A) (A) (A) (A) (A)
                 (A) (A) (A) (A) (A) (A) (A) (A) (A) (A) (A) (A)
                 (A) (A) (A) (A) (A) (A) (A) (A) (A) (A) (A) (A)
                 (A) (A) (A) (A) (A) (A) (A) (A) (A) (A) (A) (A)
                 (A) (A) (A) (A) (A) (A) (A) (A) (A) (A) (A) (A)
                 (A) (A) (A) (A) (A) (A) (A) (A) (A) (A) (A) (A)
                 (A) (A) (A) (A) (A) (A) (A) (A) (A) (A) (A) (A)
                 (A) (A) (A) (A) (A) (A) (A) (A) (A) (A) (A) (A)
                 (A) (A) (A) (A) (A) (A) (A) (A) (A) (A) (A) (A)
                 (A) (A) (A) (A) (A) (A) (A) (A) (A) (A) (A) (A)
                 (A) (A) (A) (A) (A) (A) (A) (A) (A) (A) (A) (A)
                 (A) (A) (A) (A) (A) (A) (A) (A) (A) (A) (A) (A)
                 (A) (A) (A) (A) (A) (A) (A) (A) (A) (A) (A) (A)
                 (A) (A) (A) (A) (A) (A) (A) (A) (A) (A) (A) (A)
                 (A) (A) (A) (A) (A) (A) (A) (A) (A) (A) (A) (A)
                 (A) (A) (A) (A) (A) (A) (A) (A) (A) (A) (A) (A)
                 (A) (A) (A) (A) (A) (A) (A) (A) (A) (A) (A) (A)
                 (A) (A) (A) (A) (A) (A) (A) (A) (A) (A) (A) (A)
                 (A) (A) (A) (A) (A) (A) (A) (A) (A) (A) (A) (A)
                 (A) (A) (A) (A) (A) (A) (A) (A) (A) (A) (A) (A)
                 (A) (A) (A) (A) (A) (A) (A) (A) (A) (A) (A) (A)
                 (A) (A) (A) (A) (A) (A) (A) (A) (A) (A) (A) (A)
                 (A) (A) (A) (A) (A) (A) (A) (A) (A) (A) (A) (A)
                 (A) (A) (A) (A) (A) (A) (A) (A) (A) (A) (A) (A)
                 (A) (A) (A) (A) (A) (A) (A) (A) (A) (A) (A) (A)
                 (A) (A) (A) (A) (A) (A) (A) (A) (A) (A) (A) (A)
                 (A) (A) (A) (A) (A) (A) (A) (A) (A) (A) (A) (A)
                 (A) (A) (A) (A) (A) (A) (A) (A) (A) (A) (A) (A)
                 (A) (A) (A) (A) (A) (A) (A) (A) (A) (A) (A) (A)
                 (A) (A) (A) (A) (A) (A) (A) (A) (A) (A) (A) (A)
                 (A) (A) (A) (A) (A) (A) (A) (A) (A) (A) (A) (A)
                 (A) (A) (A) (A) (A) (A) (A) (A) (A) (A) (A) (A)
                 (A) (A) (A) (A) (A) (A) (A) (A) (A) (A) (A) (A)
                 (A) (A) (A) (A) (A) (A) (A) (A) (A) (A) (A) (A)
                 (A) (A) (A) (A) (A) (A) (A) (A) (A) (A) (A) (A)
                 (A) (A) (A) (A) (A) (A) (A) (A) (A) (A) (A) (A)
                 (A) (A) (A) (A) (A) (A) (A) (A) (A) (A) (A) (A)
                 (A) (A) (A) (A) (A) (A) (A) (A) (A) (A) (A) (A)
                 (A) (A) (A) (A) (A) (A) (A) (A) (A) (A) (A) (A)
                 (A) (A) (A) (A) (A) (A) (A) (A) (A) (A) (A) (A)
                 (A) (A) (A) (A) (A) (A) (A) (A) (A) (A) (A) (A)
                 (A) (A) (A) (A) (A) (A) (A) (A) (A) (A) (A) (A)
                 (A) (A) (A) (A) (A) (A) (A) (A) (A) (A) (A) (A)
                 (A) (A) (A) (A) (A) (A) (A) (A) (A) (A) (A) (A)
                 (A) (A) (A) (A) (A) (A) (A) (A) (A) (A) (A) (A)
                 (A) (A) (A) (A) (A) (A) (A) (A) (A) (A) (A) (A)
                 (A) (A) (A) (A) (A) (A) (A) (A) (A) (A) (A) (A)
                 (A) (A) (A) (A) (A) (A) (A) (A) (A) (A) (A) (A)
                 (A) (A) (A) (A) (A) (A) (A) (A) (A) (A) (A) (A)
                 (A) (A) (A) (A) (A) (A) (A) (A) (A) (A) (A) (A)
                 (A) (A) (A) (A) (A) (A) (A) (A) (A) (A) (A) (A)
                 (A) (A) (A) (A) (A) (A) (A) (A) (A) (A) (A) (A)
                 (A) (A) (A) (A) (A) (A) (A) (A) (A) (A) (A) (A)
                 (A) (A) (A) (A) (A) (A) (A) (A) (A) (A) (A) (A)
                 (A) (A) (A) (A) (A) (A) (A) (A) (A) (A) (A) (A)
                 (A) (A) (A) (A) (A) (A) (A) (A) (A) (A) (A) (A)
                 (A) (A) (A) (A) (A) (A) (A) (A) (A) (A) (A) (A)
                 (A) (A) (A) (A) (A) (A) (A) (A) (A) (A) (A) (A)
                 (A) (A) (A) (A) (A) (A) (A) (A) (A) (A) (A) (A)
                 (A) (A) (A) (A) (A) (A) (A) (A) (A) (A) (A) (A)
                 (A) (A) (A) (A) (A) (A) (A) (A) (A) (A) (A) (A)
                 (A) (A) (A) (A) (A) (A) (A) (A) (A) (A) (A) (A)
                 (A) (A) (A) (A) (A) (A) (A) (A) (A) (A) (A) (A)
                 (A) (A) (A) (A) (A) (A) (A) (A) (A) (A) (A) (A)
                 (A) (A) (A) (A) (A) (A) (A) (A) (A) (A) (A) (A)
                 (A) (A) (A) (A) (A) (A) (A) (A) (A) (A) (A) (A)
                 (A) (A) (A) (A) (A) (A) (A) (A) (A) (A) (A) (A)
                 (A) (A) (A) (A) (A) (A) (A) (A) (A) (A) (A) (A)
                 (A) (A) (A) (A) (A) (A) (A) (A) (A) (A) (A) (A)
                 (A) (A) (A) (A) (A) (A) (A) (A) (A) (A) (A) (A)
                 (A) (A) (A) (A) (A) (A) (A) (A) (A) (A) (A) (A)
                 (A) (A) (A) (A) (A) (A) (A) (A) (A) (A) (A) (A)
                 (A) (A) (A) (A) (A) (A) (A) (A) (A) (A) (A) (A)
                 (A) (A) (A) (A) (A) (A) (A) (A) (A) (A) (A) (A)
                 (A) (A) (A) (A) (A) (A) (A) (A) (A) (A) (A) (A)
                 (A) (A) (A) (A) (A) (A) (A) (A) (A) (A) (A) (A)
                 (A) (A) (A) (A) (A) (A) (A) (A) (A) (A) (A) (A)
                 (A) (A) (A) (A) (A) (A) (A) (A) (A) (A) (A) (A)
                 (A) (A) (A) (A) (A) (A) (A) (A) (A) (A) (A) (A)
                 (A) (A) (A) (A) (A) (A) (A) (A) (A) (A) (A) (A)
                 (A) (A) (A) (A) (A) (A) (A) (A) (A) (A) (A) (A)
                 (A) (A) (A) (A) (A) (A) (A) (A) (A) (A) (A) (A)
                 (A) (A) (A) (A) (A) (A) (A) (A) (A) (A) (A) (A)
                 (A) (A) (A) (A) (A) (A) (A) (A) (A) (A) (A) (A)
                 (A) (A) (A) (A) (A) (A) (A) (A) (A) (A) (A) (A)
                 (A) (A) (A) (A) (A) (A) (A) (A) (A) (A) (A) (A)
                 (A) (A) (A) (A) (A) (A) (A) (A) (A) (A) (A) (A)
                 (A) (A) (A) (A) (A) (A) (A) (A) (A) (A) (A) (A)
                 (A) (A) (A) (A) (A) (A) (A) (A) (A) (A) (A) (A)
                 (A) (A) (A) (A) (A) (A) (A) (A) (A) (A) (A) (A)
                 (A) (A) (A) (A) (A) (A) (A) (A) (A) (A) (A) (A)
                 (A) (A) (A) (A) (A) (A) (A) (A) (A) (A) (A) (A)
                 (A) (A) (A) (A) (A) (A) (A) (A) (A) (A) (A) (A)
                 (A) (A) (A) (A) (A) (A) (A) (A) (A) (A) (A) (A)
                 (A) (A) (A) (A) (A) (A) (A) (A) (A) (A) (A) (A)
                 (A) (A) (A) (A) (A) (A) (A) (A) (A) (A) (A) (A)
                 (A) (A) (A) (A) (A) (A) (A) (A) (A) (A) (A) (A)
                 (A) (A) (A) (A) (A) (A) (A) (A) (A) (A) (A) (A)
                 (A) (A) (A) (A) (A) (A) (A) (A) (A) (A) (A) (A)
                 (A) (A) (A) (A) (A) (A) (A) (A) (A) (A) (A) (A)
                 (A) (A) (A) (A) (A) (A) (A) (A) (A) (A) (A) (A)
                 (A) (A) (A) (A) (A) (A) (A) (A) (A) (A) (A) (A)
                 (A) (A) (A) (A) (A) (A) (A) (A) (A) (A) (A) (A)
                 (A) (A) (A) (A) (A) (A) (A) (A) (A) (A) (A) (A)
                 (A) (A) (A) (A) (A) (A) (A) (A) (A) (A) (A) (A)
                 (A) (A) (A) (A) (A) (A) (A) (A) (A) (A) (A) (A)
                 (A) (A) (A) (A) (A) (A) (A) (A) (A) (A) (A) (A)
                 (A) (A) (A) (A) (A) (A) (A) (A) (A) (A) (A) (A)
                 (A) (A) (A) (A) (A) (A) (A) (A) (A) (A) (A) (A)
                 (A) (A) (A) (A) (A) (A) (A) (A) (A) (A) (A) (A)
                 (A) (A) (A) (A) (A) (A) (A) (A) (A) (A) (A) (A)
                 (A) (A) (A) (A) (A) (A) (A) (A) (A) (A) (A) (A)
                 (A) (A) (A) (A) (A) (A) (A) (A) (A) (A) (A) (A)
                 (A) (A) (A) (A) (A) (A) (A) (A) (A) (A) (A) (A)
                 (A) (A) (A) (A) (A) (A) (A) (A)
 Beta  Orbitals:
       Occupied  (A) (A) (A) (A) (A) (A) (A) (A) (A) (A) (A) (A)
                 (A) (A) (A) (A) (A) (A) (A) (A) (A) (A) (A) (A)
                 (A) (A) (A) (A) (A) (A) (A) (A) (A) (A) (A) (A)
                 (A) (A) (A) (A) (A) (A) (A) (A) (A) (A) (A) (A)
                 (A) (A) (A) (A) (A) (A) (A) (A) (A) (A) (A) (A)
                 (A) (A) (A) (A) (A) (A) (A) (A) (A) (A) (A) (A)
                 (A) (A) (A) (A) (A) (A) (A) (A) (A) (A) (A) (A)
                 (A) (A) (A) (A) (A) (A) (A) (A) (A) (A) (A) (A)
                 (A) (A) (A) (A) (A) (A) (A) (A) (A) (A) (A) (A)
                 (A) (A) (A) (A) (A) (A) (A) (A) (A) (A) (A) (A)
                 (A) (A) (A) (A) (A) (A) (A) (A) (A) (A) (A) (A)
                 (A) (A) (A) (A) (A) (A) (A) (A) (A) (A) (A) (A)
                 (A) (A) (A) (A) (A) (A) (A) (A) (A) (A) (A) (A)
                 (A) (A) (A) (A) (A) (A) (A) (A) (A) (A) (A) (A)
                 (A) (A) (A) (A) (A) (A) (A) (A) (A) (A) (A) (A)
                 (A) (A) (A) (A) (A) (A) (A)
       Virtual   (A) (A) (A) (A) (A) (A) (A) (A) (A) (A) (A) (A)
                 (A) (A) (A) (A) (A) (A) (A) (A) (A) (A) (A) (A)
                 (A) (A) (A) (A) (A) (A) (A) (A) (A) (A) (A) (A)
                 (A) (A) (A) (A) (A) (A) (A) (A) (A) (A) (A) (A)
                 (A) (A) (A) (A) (A) (A) (A) (A) (A) (A) (A) (A)
                 (A) (A) (A) (A) (A) (A) (A) (A) (A) (A) (A) (A)
                 (A) (A) (A) (A) (A) (A) (A) (A) (A) (A) (A) (A)
                 (A) (A) (A) (A) (A) (A) (A) (A) (A) (A) (A) (A)
                 (A) (A) (A) (A) (A) (A) (A) (A) (A) (A) (A) (A)
                 (A) (A) (A) (A) (A) (A) (A) (A) (A) (A) (A) (A)
                 (A) (A) (A) (A) (A) (A) (A) (A) (A) (A) (A) (A)
                 (A) (A) (A) (A) (A) (A) (A) (A) (A) (A) (A) (A)
                 (A) (A) (A) (A) (A) (A) (A) (A) (A) (A) (A) (A)
                 (A) (A) (A) (A) (A) (A) (A) (A) (A) (A) (A) (A)
                 (A) (A) (A) (A) (A) (A) (A) (A) (A) (A) (A) (A)
                 (A) (A) (A) (A) (A) (A) (A) (A) (A) (A) (A) (A)
                 (A) (A) (A) (A) (A) (A) (A) (A) (A) (A) (A) (A)
                 (A) (A) (A) (A) (A) (A) (A) (A) (A) (A) (A) (A)
                 (A) (A) (A) (A) (A) (A) (A) (A) (A) (A) (A) (A)
                 (A) (A) (A) (A) (A) (A) (A) (A) (A) (A) (A) (A)
                 (A) (A) (A) (A) (A) (A) (A) (A) (A) (A) (A) (A)
                 (A) (A) (A) (A) (A) (A) (A) (A) (A) (A) (A) (A)
                 (A) (A) (A) (A) (A) (A) (A) (A) (A) (A) (A) (A)
                 (A) (A) (A) (A) (A) (A) (A) (A) (A) (A) (A) (A)
                 (A) (A) (A) (A) (A) (A) (A) (A) (A) (A) (A) (A)
                 (A) (A) (A) (A) (A) (A) (A) (A) (A) (A) (A) (A)
                 (A) (A) (A) (A) (A) (A) (A) (A) (A) (A) (A) (A)
                 (A) (A) (A) (A) (A) (A) (A) (A) (A) (A) (A) (A)
                 (A) (A) (A) (A) (A) (A) (A) (A) (A) (A) (A) (A)
                 (A) (A) (A) (A) (A) (A) (A) (A) (A) (A) (A) (A)
                 (A) (A) (A) (A) (A) (A) (A) (A) (A) (A) (A) (A)
                 (A) (A) (A) (A) (A) (A) (A) (A) (A) (A) (A) (A)
                 (A) (A) (A) (A) (A) (A) (A) (A) (A) (A) (A) (A)
                 (A) (A) (A) (A) (A) (A) (A) (A) (A) (A) (A) (A)
                 (A) (A) (A) (A) (A) (A) (A) (A) (A) (A) (A) (A)
                 (A) (A) (A) (A) (A) (A) (A) (A) (A) (A) (A) (A)
                 (A) (A) (A) (A) (A) (A) (A) (A) (A) (A) (A) (A)
                 (A) (A) (A) (A) (A) (A) (A) (A) (A) (A) (A) (A)
                 (A) (A) (A) (A) (A) (A) (A) (A) (A) (A) (A) (A)
                 (A) (A) (A) (A) (A) (A) (A) (A) (A) (A) (A) (A)
                 (A) (A) (A) (A) (A) (A) (A) (A) (A) (A) (A) (A)
                 (A) (A) (A) (A) (A) (A) (A) (A) (A) (A) (A) (A)
                 (A) (A) (A) (A) (A) (A) (A) (A) (A) (A) (A) (A)
                 (A) (A) (A) (A) (A) (A) (A) (A) (A) (A) (A) (A)
                 (A) (A) (A) (A) (A) (A) (A) (A) (A) (A) (A) (A)
                 (A) (A) (A) (A) (A) (A) (A) (A) (A) (A) (A) (A)
                 (A) (A) (A) (A) (A) (A) (A) (A) (A) (A) (A) (A)
                 (A) (A) (A) (A) (A) (A) (A) (A) (A) (A) (A) (A)
                 (A) (A) (A) (A) (A) (A) (A) (A) (A) (A) (A) (A)
                 (A) (A) (A) (A) (A) (A) (A) (A) (A) (A) (A) (A)
                 (A) (A) (A) (A) (A) (A) (A) (A) (A) (A) (A) (A)
                 (A) (A) (A) (A) (A) (A) (A) (A) (A) (A) (A) (A)
                 (A) (A) (A) (A) (A) (A) (A) (A) (A) (A) (A) (A)
                 (A) (A) (A) (A) (A) (A) (A) (A) (A) (A) (A) (A)
                 (A) (A) (A) (A) (A) (A) (A) (A) (A) (A) (A) (A)
                 (A) (A) (A) (A) (A) (A) (A) (A) (A) (A) (A) (A)
                 (A) (A) (A) (A) (A) (A) (A) (A) (A) (A) (A) (A)
                 (A) (A) (A) (A) (A) (A) (A) (A) (A) (A) (A) (A)
                 (A) (A) (A) (A) (A) (A) (A) (A) (A) (A) (A) (A)
                 (A) (A) (A) (A) (A) (A) (A) (A) (A) (A) (A) (A)
                 (A) (A) (A) (A) (A) (A) (A) (A) (A) (A) (A) (A)
                 (A) (A) (A) (A) (A) (A) (A) (A) (A) (A) (A) (A)
                 (A) (A) (A) (A) (A) (A) (A) (A) (A) (A) (A) (A)
                 (A) (A) (A) (A) (A) (A) (A) (A) (A) (A) (A) (A)
                 (A) (A) (A) (A) (A) (A) (A) (A) (A) (A) (A) (A)
                 (A) (A) (A) (A) (A) (A) (A) (A) (A) (A) (A) (A)
                 (A) (A) (A) (A) (A) (A) (A) (A) (A) (A) (A) (A)
                 (A) (A) (A) (A) (A) (A) (A) (A) (A) (A) (A) (A)
                 (A) (A) (A) (A) (A) (A) (A) (A) (A) (A) (A) (A)
                 (A) (A) (A) (A) (A) (A) (A) (A) (A) (A) (A) (A)
                 (A) (A) (A) (A) (A) (A) (A) (A) (A) (A) (A) (A)
                 (A) (A) (A) (A) (A) (A) (A) (A) (A) (A) (A) (A)
                 (A) (A) (A) (A) (A) (A) (A) (A) (A) (A) (A) (A)
                 (A) (A) (A) (A) (A) (A) (A) (A) (A) (A) (A) (A)
                 (A) (A) (A) (A) (A) (A) (A) (A) (A) (A) (A) (A)
                 (A) (A) (A) (A) (A) (A) (A) (A) (A) (A) (A) (A)
                 (A) (A) (A) (A) (A) (A) (A) (A) (A) (A) (A) (A)
                 (A) (A) (A) (A) (A) (A) (A) (A) (A) (A) (A) (A)
                 (A) (A) (A) (A) (A) (A) (A) (A) (A) (A) (A) (A)
                 (A) (A) (A) (A) (A) (A) (A) (A) (A) (A) (A) (A)
                 (A) (A) (A) (A) (A) (A) (A) (A) (A) (A) (A) (A)
                 (A) (A) (A) (A) (A) (A) (A) (A) (A) (A) (A) (A)
                 (A) (A) (A) (A) (A) (A) (A) (A) (A) (A) (A) (A)
                 (A) (A) (A) (A) (A) (A) (A) (A) (A) (A) (A) (A)
                 (A) (A) (A) (A) (A) (A) (A) (A) (A) (A) (A) (A)
                 (A) (A) (A) (A) (A) (A) (A) (A) (A) (A) (A) (A)
                 (A) (A) (A) (A) (A) (A) (A) (A) (A) (A) (A) (A)
                 (A) (A) (A) (A) (A) (A) (A) (A) (A) (A) (A) (A)
                 (A) (A) (A) (A) (A) (A) (A) (A) (A) (A) (A) (A)
                 (A) (A) (A) (A) (A) (A) (A) (A) (A) (A) (A) (A)
                 (A) (A) (A) (A) (A) (A) (A) (A) (A) (A) (A) (A)
                 (A) (A) (A) (A) (A) (A) (A) (A) (A) (A) (A) (A)
                 (A) (A) (A) (A) (A) (A) (A) (A) (A) (A) (A) (A)
                 (A) (A) (A) (A) (A) (A) (A) (A) (A) (A) (A) (A)
                 (A) (A) (A) (A) (A) (A) (A) (A) (A) (A) (A) (A)
                 (A) (A) (A) (A) (A) (A) (A) (A) (A) (A) (A) (A)
                 (A) (A) (A) (A) (A) (A) (A) (A) (A) (A) (A) (A)
                 (A) (A) (A) (A) (A) (A) (A) (A) (A) (A) (A) (A)
                 (A) (A) (A) (A) (A) (A) (A) (A) (A) (A) (A) (A)
                 (A) (A) (A) (A) (A) (A) (A) (A) (A) (A) (A) (A)
                 (A) (A) (A) (A) (A) (A) (A) (A) (A) (A) (A) (A)
                 (A) (A) (A) (A) (A) (A) (A) (A) (A) (A) (A) (A)
                 (A) (A) (A) (A) (A) (A) (A) (A) (A) (A) (A) (A)
                 (A) (A) (A) (A) (A) (A) (A) (A) (A) (A) (A) (A)
                 (A) (A) (A) (A) (A) (A) (A) (A) (A) (A) (A) (A)
                 (A) (A) (A) (A) (A) (A) (A) (A) (A) (A) (A) (A)
                 (A) (A) (A) (A) (A) (A) (A) (A) (A) (A) (A) (A)
                 (A) (A) (A) (A) (A) (A) (A) (A) (A) (A) (A) (A)
                 (A) (A) (A) (A) (A) (A) (A) (A) (A) (A) (A) (A)
                 (A) (A) (A) (A) (A) (A) (A) (A) (A) (A) (A) (A)
                 (A) (A) (A) (A) (A) (A) (A) (A) (A) (A) (A) (A)
                 (A) (A) (A) (A) (A) (A) (A) (A) (A) (A) (A) (A)
                 (A) (A) (A) (A) (A) (A) (A) (A) (A) (A) (A) (A)
                 (A) (A) (A) (A) (A) (A) (A) (A) (A) (A) (A) (A)
                 (A) (A) (A) (A) (A) (A) (A) (A) (A) (A) (A) (A)
                 (A) (A) (A) (A) (A) (A) (A) (A) (A) (A) (A) (A)
                 (A) (A) (A) (A) (A) (A) (A) (A) (A) (A) (A) (A)
                 (A) (A) (A) (A) (A) (A) (A) (A) (A) (A) (A) (A)
                 (A) (A) (A) (A) (A) (A) (A) (A) (A) (A) (A) (A)
                 (A) (A) (A) (A) (A) (A) (A) (A) (A) (A) (A) (A)
                 (A) (A) (A) (A) (A) (A) (A) (A) (A) (A) (A) (A)
                 (A) (A) (A) (A) (A) (A) (A) (A) (A) (A) (A) (A)
                 (A) (A) (A) (A) (A) (A) (A) (A) (A) (A) (A) (A)
                 (A) (A) (A) (A) (A) (A) (A) (A) (A) (A) (A) (A)
                 (A) (A) (A) (A) (A) (A) (A) (A) (A) (A) (A) (A)
                 (A) (A) (A) (A) (A) (A) (A) (A) (A) (A) (A) (A)
                 (A) (A) (A) (A) (A) (A) (A) (A) (A) (A) (A) (A)
                 (A) (A) (A) (A) (A) (A) (A) (A) (A) (A) (A) (A)
                 (A) (A) (A) (A) (A) (A) (A) (A) (A) (A) (A) (A)
                 (A) (A) (A) (A) (A) (A) (A) (A) (A) (A) (A) (A)
                 (A) (A) (A) (A) (A) (A) (A) (A) (A) (A) (A) (A)
                 (A) (A) (A) (A) (A) (A) (A) (A) (A) (A) (A) (A)
                 (A) (A) (A) (A) (A) (A) (A) (A) (A) (A) (A) (A)
                 (A) (A) (A) (A) (A) (A) (A) (A) (A) (A) (A) (A)
                 (A) (A) (A) (A) (A) (A) (A) (A) (A)
 The electronic state is 2-A.
 Alpha  occ. eigenvalues -- -256.54184 -30.32564 -26.15846 -26.15394 -26.13461
 Alpha  occ. eigenvalues --  -19.36234 -19.33386 -19.33092 -19.27049 -19.24580
 Alpha  occ. eigenvalues --  -14.55225 -14.52414 -14.50513 -14.50332 -14.50068
 Alpha  occ. eigenvalues --  -14.49784 -10.44537 -10.42051 -10.39056 -10.37113
 Alpha  occ. eigenvalues --  -10.36621 -10.36564 -10.36391 -10.36259 -10.36251
 Alpha  occ. eigenvalues --  -10.36247 -10.36135 -10.35899 -10.34577 -10.33940
 Alpha  occ. eigenvalues --  -10.33751 -10.33657 -10.33656 -10.33498 -10.33117
 Alpha  occ. eigenvalues --  -10.33011 -10.32976 -10.32839 -10.32806 -10.32697
 Alpha  occ. eigenvalues --  -10.32684 -10.32565 -10.32394 -10.32329 -10.32253
 Alpha  occ. eigenvalues --  -10.31599 -10.31520 -10.31388 -10.31000 -10.30597
 Alpha  occ. eigenvalues --  -10.30508 -10.30091 -10.29691 -10.29690  -3.68877
 Alpha  occ. eigenvalues --   -2.46393  -2.45055  -2.42038  -1.25803  -1.25425
 Alpha  occ. eigenvalues --   -1.18025  -1.17353  -1.12452  -1.09815  -1.09488
 Alpha  occ. eigenvalues --   -1.08616  -1.08313  -1.07174  -1.02654  -0.95089
 Alpha  occ. eigenvalues --   -0.94138  -0.93853  -0.93435  -0.92576  -0.92195
 Alpha  occ. eigenvalues --   -0.91791  -0.91056  -0.89329  -0.88769  -0.88287
 Alpha  occ. eigenvalues --   -0.87088  -0.86671  -0.84691  -0.82699  -0.82378
 Alpha  occ. eigenvalues --   -0.82079  -0.81187  -0.79743  -0.79186  -0.79035
 Alpha  occ. eigenvalues --   -0.77613  -0.76470  -0.76088  -0.75734  -0.74563
 Alpha  occ. eigenvalues --   -0.72899  -0.72546  -0.71527  -0.70725  -0.70434
 Alpha  occ. eigenvalues --   -0.69157  -0.67007  -0.66836  -0.65613  -0.64932
 Alpha  occ. eigenvalues --   -0.64457  -0.63725  -0.63414  -0.62735  -0.62118
 Alpha  occ. eigenvalues --   -0.60818  -0.60769  -0.59869  -0.59516  -0.58830
 Alpha  occ. eigenvalues --   -0.58511  -0.58435  -0.58416  -0.57578  -0.56899
 Alpha  occ. eigenvalues --   -0.56533  -0.56324  -0.55911  -0.55894  -0.55374
 Alpha  occ. eigenvalues --   -0.55049  -0.54733  -0.54538  -0.54390  -0.54284
 Alpha  occ. eigenvalues --   -0.54180  -0.53817  -0.53397  -0.53248  -0.53021
 Alpha  occ. eigenvalues --   -0.52784  -0.52595  -0.52375  -0.52089  -0.51835
 Alpha  occ. eigenvalues --   -0.51811  -0.51595  -0.51403  -0.51057  -0.50675
 Alpha  occ. eigenvalues --   -0.50365  -0.50155  -0.49871  -0.49837  -0.49581
 Alpha  occ. eigenvalues --   -0.49450  -0.49160  -0.48968  -0.48681  -0.48337
 Alpha  occ. eigenvalues --   -0.48209  -0.47676  -0.47208  -0.47098  -0.46833
 Alpha  occ. eigenvalues --   -0.46725  -0.46378  -0.45988  -0.45738  -0.45422
 Alpha  occ. eigenvalues --   -0.45079  -0.44571  -0.44123  -0.43451  -0.43279
 Alpha  occ. eigenvalues --   -0.42911  -0.42315  -0.42024  -0.41091  -0.40047
 Alpha  occ. eigenvalues --   -0.39812  -0.39477  -0.37487  -0.36891  -0.36565
 Alpha  occ. eigenvalues --   -0.35563  -0.34906  -0.34654  -0.34581  -0.32272
 Alpha  occ. eigenvalues --   -0.30908  -0.30575  -0.27617
 Alpha virt. eigenvalues --   -0.22419  -0.19824  -0.18487  -0.17716  -0.16109
 Alpha virt. eigenvalues --   -0.12125  -0.09473  -0.09233  -0.08513  -0.08439
 Alpha virt. eigenvalues --   -0.07700  -0.06513  -0.06181  -0.05731  -0.04622
 Alpha virt. eigenvalues --   -0.03971  -0.03594  -0.03274  -0.03165  -0.02951
 Alpha virt. eigenvalues --   -0.02135  -0.01842  -0.01215  -0.01163  -0.00705
 Alpha virt. eigenvalues --   -0.00294  -0.00017   0.00146   0.00412   0.00674
 Alpha virt. eigenvalues --    0.00824   0.01073   0.01723   0.01784   0.02072
 Alpha virt. eigenvalues --    0.02403   0.02482   0.02829   0.02862   0.03177
 Alpha virt. eigenvalues --    0.03462   0.03586   0.03846   0.04205   0.04441
 Alpha virt. eigenvalues --    0.04693   0.04903   0.04950   0.05127   0.05419
 Alpha virt. eigenvalues --    0.05524   0.05710   0.05910   0.06196   0.06296
 Alpha virt. eigenvalues --    0.06439   0.06649   0.06759   0.07177   0.07331
 Alpha virt. eigenvalues --    0.07511   0.07635   0.07915   0.08374   0.08421
 Alpha virt. eigenvalues --    0.08530   0.08974   0.09067   0.09416   0.09841
 Alpha virt. eigenvalues --    0.09972   0.10271   0.10342   0.10374   0.10621
 Alpha virt. eigenvalues --    0.10888   0.11070   0.11229   0.11518   0.11826
 Alpha virt. eigenvalues --    0.12122   0.12302   0.12614   0.12772   0.12812
 Alpha virt. eigenvalues --    0.13058   0.13089   0.13483   0.13665   0.13974
 Alpha virt. eigenvalues --    0.14225   0.14495   0.14606   0.15029   0.15234
 Alpha virt. eigenvalues --    0.15434   0.15572   0.15650   0.15851   0.16284
 Alpha virt. eigenvalues --    0.16507   0.16515   0.16663   0.17044   0.17333
 Alpha virt. eigenvalues --    0.17537   0.17768   0.18028   0.18326   0.18413
 Alpha virt. eigenvalues --    0.18759   0.18925   0.19231   0.19394   0.19602
 Alpha virt. eigenvalues --    0.19955   0.20165   0.20459   0.20662   0.20793
 Alpha virt. eigenvalues --    0.20966   0.21187   0.21316   0.21662   0.21853
 Alpha virt. eigenvalues --    0.21966   0.22247   0.22479   0.22652   0.23071
 Alpha virt. eigenvalues --    0.23493   0.23730   0.23981   0.23988   0.24448
 Alpha virt. eigenvalues --    0.24651   0.24959   0.25087   0.25504   0.25610
 Alpha virt. eigenvalues --    0.25762   0.26018   0.26415   0.26443   0.26703
 Alpha virt. eigenvalues --    0.27009   0.27517   0.27595   0.27987   0.28047
 Alpha virt. eigenvalues --    0.28112   0.28272   0.28498   0.28734   0.28858
 Alpha virt. eigenvalues --    0.29053   0.29302   0.29639   0.29991   0.30328
 Alpha virt. eigenvalues --    0.30522   0.30742   0.30872   0.31053   0.31146
 Alpha virt. eigenvalues --    0.31580   0.31693   0.32017   0.32330   0.32491
 Alpha virt. eigenvalues --    0.32752   0.33008   0.33095   0.33269   0.33327
 Alpha virt. eigenvalues --    0.33689   0.33970   0.34087   0.34185   0.34389
 Alpha virt. eigenvalues --    0.34449   0.34754   0.34892   0.35167   0.35263
 Alpha virt. eigenvalues --    0.35553   0.35765   0.36058   0.36311   0.36533
 Alpha virt. eigenvalues --    0.36753   0.36804   0.37014   0.37237   0.37440
 Alpha virt. eigenvalues --    0.37528   0.37782   0.37802   0.38000   0.38261
 Alpha virt. eigenvalues --    0.38346   0.38609   0.38746   0.39100   0.39193
 Alpha virt. eigenvalues --    0.39245   0.39634   0.39715   0.39907   0.40219
 Alpha virt. eigenvalues --    0.40286   0.40351   0.40662   0.40789   0.40955
 Alpha virt. eigenvalues --    0.41271   0.41333   0.41590   0.41718   0.41882
 Alpha virt. eigenvalues --    0.42043   0.42192   0.42210   0.42779   0.43017
 Alpha virt. eigenvalues --    0.43129   0.43420   0.43570   0.43686   0.44175
 Alpha virt. eigenvalues --    0.44285   0.44471   0.45019   0.45124   0.45365
 Alpha virt. eigenvalues --    0.45552   0.45813   0.45995   0.46170   0.46240
 Alpha virt. eigenvalues --    0.46324   0.46685   0.46837   0.47105   0.47400
 Alpha virt. eigenvalues --    0.47544   0.47865   0.47933   0.48120   0.48450
 Alpha virt. eigenvalues --    0.48557   0.48679   0.49013   0.49494   0.49799
 Alpha virt. eigenvalues --    0.49976   0.50381   0.50782   0.50843   0.50992
 Alpha virt. eigenvalues --    0.51334   0.51509   0.51652   0.51849   0.52208
 Alpha virt. eigenvalues --    0.52469   0.52629   0.52903   0.53078   0.53206
 Alpha virt. eigenvalues --    0.53475   0.53921   0.54024   0.54126   0.54316
 Alpha virt. eigenvalues --    0.54460   0.54724   0.55043   0.55142   0.55712
 Alpha virt. eigenvalues --    0.55787   0.56021   0.56149   0.56537   0.56630
 Alpha virt. eigenvalues --    0.57005   0.57140   0.57327   0.57715   0.57854
 Alpha virt. eigenvalues --    0.58297   0.58789   0.58935   0.59077   0.59485
 Alpha virt. eigenvalues --    0.59723   0.60289   0.60441   0.60654   0.60749
 Alpha virt. eigenvalues --    0.60868   0.61293   0.61439   0.61809   0.61991
 Alpha virt. eigenvalues --    0.62303   0.62725   0.62936   0.63128   0.63327
 Alpha virt. eigenvalues --    0.63662   0.64183   0.64530   0.64776   0.64902
 Alpha virt. eigenvalues --    0.65640   0.65689   0.66112   0.66444   0.66625
 Alpha virt. eigenvalues --    0.66845   0.67067   0.67768   0.68111   0.68476
 Alpha virt. eigenvalues --    0.68668   0.68896   0.69283   0.69943   0.70011
 Alpha virt. eigenvalues --    0.70191   0.70658   0.70987   0.71217   0.71581
 Alpha virt. eigenvalues --    0.71981   0.72150   0.72299   0.73067   0.73354
 Alpha virt. eigenvalues --    0.73514   0.73846   0.73970   0.74252   0.74574
 Alpha virt. eigenvalues --    0.74893   0.75252   0.75621   0.75849   0.75993
 Alpha virt. eigenvalues --    0.76237   0.76611   0.77015   0.77340   0.77491
 Alpha virt. eigenvalues --    0.77753   0.78255   0.78518   0.78843   0.79224
 Alpha virt. eigenvalues --    0.79276   0.79813   0.80057   0.80527   0.80858
 Alpha virt. eigenvalues --    0.80986   0.81505   0.81916   0.82176   0.82282
 Alpha virt. eigenvalues --    0.83026   0.83221   0.83404   0.83784   0.83935
 Alpha virt. eigenvalues --    0.84287   0.84514   0.84593   0.84934   0.85012
 Alpha virt. eigenvalues --    0.85122   0.85376   0.85906   0.86395   0.86715
 Alpha virt. eigenvalues --    0.86892   0.87321   0.87452   0.87488   0.87732
 Alpha virt. eigenvalues --    0.88023   0.88477   0.88726   0.88893   0.89011
 Alpha virt. eigenvalues --    0.89492   0.89729   0.89934   0.90075   0.90207
 Alpha virt. eigenvalues --    0.90680   0.90927   0.91419   0.91572   0.91773
 Alpha virt. eigenvalues --    0.92509   0.92962   0.93206   0.93234   0.93666
 Alpha virt. eigenvalues --    0.94082   0.94448   0.94772   0.95118   0.95308
 Alpha virt. eigenvalues --    0.95650   0.95754   0.96009   0.96781   0.97015
 Alpha virt. eigenvalues --    0.97382   0.97849   0.98369   0.98507   0.98693
 Alpha virt. eigenvalues --    0.98911   0.99424   0.99877   1.00095   1.00473
 Alpha virt. eigenvalues --    1.00678   1.01039   1.01631   1.02005   1.02169
 Alpha virt. eigenvalues --    1.02394   1.02959   1.03280   1.03874   1.03913
 Alpha virt. eigenvalues --    1.04038   1.04543   1.05123   1.05485   1.05782
 Alpha virt. eigenvalues --    1.06208   1.06419   1.06688   1.06920   1.07313
 Alpha virt. eigenvalues --    1.07970   1.08226   1.08373   1.08468   1.09340
 Alpha virt. eigenvalues --    1.09785   1.10080   1.10300   1.10498   1.10887
 Alpha virt. eigenvalues --    1.11550   1.11753   1.12038   1.12880   1.13145
 Alpha virt. eigenvalues --    1.13323   1.13802   1.14022   1.14268   1.14772
 Alpha virt. eigenvalues --    1.15397   1.15558   1.16149   1.16184   1.16786
 Alpha virt. eigenvalues --    1.17020   1.17280   1.17577   1.17824   1.18066
 Alpha virt. eigenvalues --    1.18538   1.18897   1.19400   1.19534   1.19917
 Alpha virt. eigenvalues --    1.20810   1.20947   1.21330   1.21490   1.22241
 Alpha virt. eigenvalues --    1.22599   1.22866   1.23192   1.23603   1.23852
 Alpha virt. eigenvalues --    1.24079   1.24373   1.24483   1.25317   1.25522
 Alpha virt. eigenvalues --    1.25949   1.26968   1.27077   1.27458   1.27599
 Alpha virt. eigenvalues --    1.28039   1.28480   1.28913   1.29536   1.29586
 Alpha virt. eigenvalues --    1.30044   1.30203   1.30872   1.31706   1.31981
 Alpha virt. eigenvalues --    1.32377   1.32880   1.33455   1.33852   1.34123
 Alpha virt. eigenvalues --    1.34411   1.34978   1.35281   1.35594   1.35647
 Alpha virt. eigenvalues --    1.36682   1.37070   1.37370   1.37478   1.37718
 Alpha virt. eigenvalues --    1.37913   1.38147   1.38505   1.38815   1.39347
 Alpha virt. eigenvalues --    1.39823   1.40233   1.40258   1.40919   1.41195
 Alpha virt. eigenvalues --    1.41608   1.42144   1.42327   1.42681   1.43076
 Alpha virt. eigenvalues --    1.43451   1.43512   1.43928   1.44337   1.44556
 Alpha virt. eigenvalues --    1.44923   1.45094   1.45334   1.45510   1.45825
 Alpha virt. eigenvalues --    1.46087   1.46259   1.46597   1.46941   1.47129
 Alpha virt. eigenvalues --    1.47216   1.47682   1.47783   1.47892   1.48434
 Alpha virt. eigenvalues --    1.48953   1.49028   1.49379   1.49441   1.49865
 Alpha virt. eigenvalues --    1.50094   1.50492   1.50767   1.51300   1.51536
 Alpha virt. eigenvalues --    1.51820   1.51964   1.52395   1.52528   1.52803
 Alpha virt. eigenvalues --    1.52886   1.53558   1.53701   1.54021   1.54074
 Alpha virt. eigenvalues --    1.54295   1.54672   1.54932   1.55121   1.55626
 Alpha virt. eigenvalues --    1.55742   1.56040   1.56572   1.56697   1.56987
 Alpha virt. eigenvalues --    1.57184   1.57602   1.57690   1.58503   1.58688
 Alpha virt. eigenvalues --    1.58810   1.59140   1.59480   1.59713   1.59862
 Alpha virt. eigenvalues --    1.60009   1.60735   1.60871   1.61750   1.61801
 Alpha virt. eigenvalues --    1.62124   1.62342   1.62586   1.63169   1.63561
 Alpha virt. eigenvalues --    1.63675   1.63928   1.64129   1.64532   1.64682
 Alpha virt. eigenvalues --    1.64882   1.65136   1.65468   1.65556   1.65823
 Alpha virt. eigenvalues --    1.66535   1.67103   1.67549   1.67786   1.68301
 Alpha virt. eigenvalues --    1.68593   1.68768   1.69141   1.69522   1.70537
 Alpha virt. eigenvalues --    1.70939   1.71087   1.71529   1.72215   1.72308
 Alpha virt. eigenvalues --    1.73001   1.73282   1.73973   1.74324   1.74609
 Alpha virt. eigenvalues --    1.75198   1.75862   1.76203   1.76382   1.76407
 Alpha virt. eigenvalues --    1.77036   1.77212   1.77641   1.77883   1.78240
 Alpha virt. eigenvalues --    1.78394   1.78991   1.79636   1.79880   1.80186
 Alpha virt. eigenvalues --    1.80456   1.80928   1.81174   1.81353   1.81758
 Alpha virt. eigenvalues --    1.82331   1.82722   1.83074   1.83602   1.83865
 Alpha virt. eigenvalues --    1.84510   1.84759   1.85232   1.85417   1.86032
 Alpha virt. eigenvalues --    1.86047   1.86187   1.86578   1.86970   1.87694
 Alpha virt. eigenvalues --    1.87873   1.88036   1.88408   1.88994   1.89466
 Alpha virt. eigenvalues --    1.89716   1.89958   1.90422   1.90659   1.91061
 Alpha virt. eigenvalues --    1.91132   1.91524   1.91945   1.92551   1.92808
 Alpha virt. eigenvalues --    1.93150   1.94156   1.94664   1.94966   1.95286
 Alpha virt. eigenvalues --    1.95567   1.95755   1.96197   1.96703   1.96904
 Alpha virt. eigenvalues --    1.97171   1.97695   1.98204   1.98880   1.99103
 Alpha virt. eigenvalues --    1.99354   1.99599   2.00045   2.00226   2.00687
 Alpha virt. eigenvalues --    2.00918   2.01177   2.01490   2.02386   2.02802
 Alpha virt. eigenvalues --    2.03110   2.03620   2.03779   2.04110   2.04486
 Alpha virt. eigenvalues --    2.04537   2.04822   2.05546   2.06058   2.06351
 Alpha virt. eigenvalues --    2.06711   2.07306   2.07508   2.08151   2.08314
 Alpha virt. eigenvalues --    2.08815   2.08901   2.09006   2.09473   2.09510
 Alpha virt. eigenvalues --    2.09971   2.10300   2.10507   2.11051   2.11769
 Alpha virt. eigenvalues --    2.11926   2.12501   2.13050   2.13476   2.13794
 Alpha virt. eigenvalues --    2.14373   2.14605   2.14752   2.15532   2.15793
 Alpha virt. eigenvalues --    2.16350   2.16892   2.17075   2.17483   2.17540
 Alpha virt. eigenvalues --    2.18049   2.18677   2.18757   2.18886   2.19640
 Alpha virt. eigenvalues --    2.19696   2.20604   2.20637   2.21388   2.21764
 Alpha virt. eigenvalues --    2.22350   2.22661   2.22684   2.22847   2.23736
 Alpha virt. eigenvalues --    2.24095   2.24299   2.24555   2.25275   2.26179
 Alpha virt. eigenvalues --    2.26666   2.27077   2.27248   2.27767   2.28057
 Alpha virt. eigenvalues --    2.28405   2.28791   2.29044   2.29635   2.29871
 Alpha virt. eigenvalues --    2.30113   2.30532   2.31139   2.31325   2.31576
 Alpha virt. eigenvalues --    2.32245   2.32522   2.32731   2.33109   2.33247
 Alpha virt. eigenvalues --    2.34056   2.34368   2.34502   2.34989   2.35082
 Alpha virt. eigenvalues --    2.35360   2.35985   2.36328   2.36560   2.36816
 Alpha virt. eigenvalues --    2.37465   2.37578   2.37951   2.38166   2.39046
 Alpha virt. eigenvalues --    2.39547   2.40118   2.40312   2.40539   2.41545
 Alpha virt. eigenvalues --    2.41642   2.41906   2.42546   2.43202   2.43963
 Alpha virt. eigenvalues --    2.44159   2.44291   2.44735   2.45323   2.45725
 Alpha virt. eigenvalues --    2.46145   2.46168   2.46526   2.46729   2.47136
 Alpha virt. eigenvalues --    2.47389   2.47843   2.47977   2.48341   2.48965
 Alpha virt. eigenvalues --    2.49258   2.49383   2.49410   2.50204   2.50409
 Alpha virt. eigenvalues --    2.51058   2.51111   2.51399   2.51913   2.52105
 Alpha virt. eigenvalues --    2.52242   2.52541   2.52569   2.53429   2.53451
 Alpha virt. eigenvalues --    2.53975   2.54034   2.54445   2.54627   2.55272
 Alpha virt. eigenvalues --    2.55428   2.55901   2.56164   2.56459   2.57134
 Alpha virt. eigenvalues --    2.57319   2.57427   2.57852   2.58239   2.58501
 Alpha virt. eigenvalues --    2.59108   2.59201   2.59719   2.60105   2.60381
 Alpha virt. eigenvalues --    2.60733   2.60882   2.61675   2.61764   2.61938
 Alpha virt. eigenvalues --    2.62458   2.62898   2.62995   2.63603   2.63679
 Alpha virt. eigenvalues --    2.63932   2.64249   2.64509   2.65010   2.65423
 Alpha virt. eigenvalues --    2.65527   2.65934   2.66535   2.66603   2.67431
 Alpha virt. eigenvalues --    2.67556   2.68176   2.68399   2.68995   2.69245
 Alpha virt. eigenvalues --    2.69688   2.70008   2.70471   2.70607   2.70712
 Alpha virt. eigenvalues --    2.70935   2.71527   2.72209   2.72320   2.72724
 Alpha virt. eigenvalues --    2.73143   2.73376   2.73631   2.74149   2.74284
 Alpha virt. eigenvalues --    2.75055   2.75264   2.75615   2.75945   2.76597
 Alpha virt. eigenvalues --    2.76986   2.77101   2.77595   2.77754   2.77932
 Alpha virt. eigenvalues --    2.78356   2.78446   2.78855   2.79529   2.79901
 Alpha virt. eigenvalues --    2.80037   2.80376   2.80918   2.81049   2.81245
 Alpha virt. eigenvalues --    2.81423   2.81730   2.81897   2.82339   2.82620
 Alpha virt. eigenvalues --    2.83111   2.83458   2.83955   2.84097   2.84430
 Alpha virt. eigenvalues --    2.84731   2.85071   2.85353   2.85656   2.86025
 Alpha virt. eigenvalues --    2.86210   2.86622   2.86993   2.87346   2.87631
 Alpha virt. eigenvalues --    2.88088   2.88208   2.88546   2.88864   2.89386
 Alpha virt. eigenvalues --    2.89525   2.90102   2.90406   2.90512   2.90861
 Alpha virt. eigenvalues --    2.91226   2.91298   2.91708   2.92344   2.92604
 Alpha virt. eigenvalues --    2.93147   2.93398   2.93586   2.94150   2.94298
 Alpha virt. eigenvalues --    2.94593   2.94763   2.94888   2.95201   2.95453
 Alpha virt. eigenvalues --    2.96010   2.96456   2.96545   2.97001   2.97386
 Alpha virt. eigenvalues --    2.97608   2.97773   2.98240   2.98518   2.98618
 Alpha virt. eigenvalues --    2.98754   2.98903   2.99572   2.99706   3.00170
 Alpha virt. eigenvalues --    3.00724   3.00866   3.00918   3.01614   3.01771
 Alpha virt. eigenvalues --    3.01949   3.02424   3.02749   3.02991   3.03215
 Alpha virt. eigenvalues --    3.03440   3.03752   3.04504   3.04831   3.04971
 Alpha virt. eigenvalues --    3.05166   3.05482   3.05779   3.06014   3.06291
 Alpha virt. eigenvalues --    3.06600   3.07197   3.07373   3.07663   3.07969
 Alpha virt. eigenvalues --    3.08099   3.08375   3.08770   3.08975   3.09158
 Alpha virt. eigenvalues --    3.09412   3.09883   3.10288   3.10540   3.10730
 Alpha virt. eigenvalues --    3.10837   3.11209   3.11388   3.11791   3.12055
 Alpha virt. eigenvalues --    3.12497   3.12812   3.13076   3.13299   3.13510
 Alpha virt. eigenvalues --    3.13652   3.14054   3.14501   3.14816   3.14937
 Alpha virt. eigenvalues --    3.15527   3.15711   3.15990   3.16200   3.16480
 Alpha virt. eigenvalues --    3.16624   3.16740   3.16767   3.17348   3.17479
 Alpha virt. eigenvalues --    3.17725   3.18001   3.18465   3.18713   3.19044
 Alpha virt. eigenvalues --    3.19301   3.19571   3.20025   3.20387   3.20664
 Alpha virt. eigenvalues --    3.20848   3.21084   3.21110   3.21448   3.21864
 Alpha virt. eigenvalues --    3.22043   3.22404   3.22670   3.23012   3.23302
 Alpha virt. eigenvalues --    3.23749   3.24116   3.24201   3.24301   3.24657
 Alpha virt. eigenvalues --    3.24850   3.25210   3.25557   3.25625   3.25791
 Alpha virt. eigenvalues --    3.26132   3.26644   3.26937   3.27144   3.27359
 Alpha virt. eigenvalues --    3.27981   3.28168   3.28562   3.28811   3.28825
 Alpha virt. eigenvalues --    3.29047   3.29496   3.29773   3.29921   3.30265
 Alpha virt. eigenvalues --    3.30547   3.30666   3.31247   3.31402   3.31860
 Alpha virt. eigenvalues --    3.32004   3.32188   3.32322   3.32451   3.33082
 Alpha virt. eigenvalues --    3.33360   3.33444   3.33966   3.34242   3.34433
 Alpha virt. eigenvalues --    3.34631   3.34906   3.35658   3.36063   3.36117
 Alpha virt. eigenvalues --    3.36530   3.36842   3.37103   3.37276   3.37646
 Alpha virt. eigenvalues --    3.37848   3.38279   3.38577   3.38999   3.39404
 Alpha virt. eigenvalues --    3.39738   3.40026   3.40571   3.40754   3.40797
 Alpha virt. eigenvalues --    3.41148   3.41333   3.41684   3.42329   3.42736
 Alpha virt. eigenvalues --    3.43090   3.43291   3.43521   3.44515   3.44833
 Alpha virt. eigenvalues --    3.45370   3.45608   3.45824   3.46299   3.46596
 Alpha virt. eigenvalues --    3.46998   3.47329   3.47881   3.48315   3.48702
 Alpha virt. eigenvalues --    3.48754   3.49043   3.49146   3.49246   3.49833
 Alpha virt. eigenvalues --    3.50271   3.50804   3.51039   3.51392   3.51713
 Alpha virt. eigenvalues --    3.52006   3.52625   3.52924   3.53418   3.53834
 Alpha virt. eigenvalues --    3.53932   3.54647   3.55061   3.55518   3.56045
 Alpha virt. eigenvalues --    3.56581   3.56736   3.56878   3.57303   3.57599
 Alpha virt. eigenvalues --    3.58222   3.58438   3.58731   3.59391   3.59870
 Alpha virt. eigenvalues --    3.60623   3.60777   3.61480   3.61750   3.62262
 Alpha virt. eigenvalues --    3.62376   3.62582   3.63119   3.63331   3.63514
 Alpha virt. eigenvalues --    3.64139   3.64399   3.64677   3.64981   3.65150
 Alpha virt. eigenvalues --    3.65438   3.65853   3.66261   3.66801   3.67385
 Alpha virt. eigenvalues --    3.67575   3.67832   3.68406   3.68924   3.69021
 Alpha virt. eigenvalues --    3.69473   3.70257   3.70583   3.70816   3.71394
 Alpha virt. eigenvalues --    3.71846   3.72866   3.72971   3.73853   3.74180
 Alpha virt. eigenvalues --    3.74453   3.74683   3.74913   3.75540   3.76520
 Alpha virt. eigenvalues --    3.76971   3.77441   3.78180   3.78724   3.79190
 Alpha virt. eigenvalues --    3.79910   3.80189   3.80990   3.81492   3.81736
 Alpha virt. eigenvalues --    3.82442   3.83229   3.83354   3.83657   3.84383
 Alpha virt. eigenvalues --    3.84528   3.84725   3.85723   3.86094   3.86733
 Alpha virt. eigenvalues --    3.86856   3.87047   3.87552   3.88142   3.88490
 Alpha virt. eigenvalues --    3.89530   3.89615   3.90603   3.90849   3.91234
 Alpha virt. eigenvalues --    3.91405   3.92677   3.93262   3.93439   3.93695
 Alpha virt. eigenvalues --    3.94249   3.94694   3.95130   3.96603   3.96949
 Alpha virt. eigenvalues --    3.97402   3.98795   3.99038   3.99401   3.99961
 Alpha virt. eigenvalues --    4.00340   4.01111   4.02190   4.02507   4.02999
 Alpha virt. eigenvalues --    4.03552   4.04252   4.04466   4.04961   4.05553
 Alpha virt. eigenvalues --    4.05718   4.06373   4.06698   4.07005   4.07576
 Alpha virt. eigenvalues --    4.07766   4.08675   4.09287   4.10206   4.10820
 Alpha virt. eigenvalues --    4.10991   4.11550   4.11982   4.12112   4.12233
 Alpha virt. eigenvalues --    4.13074   4.13702   4.14188   4.14505   4.14845
 Alpha virt. eigenvalues --    4.15450   4.15831   4.16688   4.17035   4.17633
 Alpha virt. eigenvalues --    4.18040   4.18494   4.19495   4.20459   4.20751
 Alpha virt. eigenvalues --    4.21156   4.21967   4.22431   4.23033   4.23810
 Alpha virt. eigenvalues --    4.24857   4.25200   4.25351   4.26218   4.26442
 Alpha virt. eigenvalues --    4.27353   4.27444   4.28500   4.28676   4.28951
 Alpha virt. eigenvalues --    4.29806   4.30355   4.30760   4.31162   4.31836
 Alpha virt. eigenvalues --    4.32016   4.33166   4.33345   4.33892   4.34994
 Alpha virt. eigenvalues --    4.35281   4.36109   4.36831   4.36864   4.37368
 Alpha virt. eigenvalues --    4.37947   4.38242   4.39061   4.39385   4.39878
 Alpha virt. eigenvalues --    4.40601   4.41929   4.42148   4.42768   4.43495
 Alpha virt. eigenvalues --    4.44499   4.44944   4.45448   4.47253   4.48435
 Alpha virt. eigenvalues --    4.49056   4.49520   4.49996   4.50300   4.50980
 Alpha virt. eigenvalues --    4.51473   4.52148   4.52588   4.53023   4.53411
 Alpha virt. eigenvalues --    4.53758   4.55239   4.55603   4.56662   4.56941
 Alpha virt. eigenvalues --    4.57273   4.58692   4.59469   4.60027   4.60334
 Alpha virt. eigenvalues --    4.60858   4.61499   4.61906   4.62746   4.63425
 Alpha virt. eigenvalues --    4.64079   4.64914   4.65036   4.66097   4.66301
 Alpha virt. eigenvalues --    4.67122   4.67261   4.67642   4.68216   4.68777
 Alpha virt. eigenvalues --    4.70046   4.70795   4.71270   4.72097   4.72785
 Alpha virt. eigenvalues --    4.73452   4.73787   4.74999   4.75695   4.76162
 Alpha virt. eigenvalues --    4.76775   4.77085   4.78077   4.78373   4.78728
 Alpha virt. eigenvalues --    4.79597   4.80128   4.80483   4.81470   4.81715
 Alpha virt. eigenvalues --    4.82173   4.83480   4.84170   4.84832   4.85837
 Alpha virt. eigenvalues --    4.86856   4.87245   4.87561   4.88656   4.89559
 Alpha virt. eigenvalues --    4.89684   4.89837   4.91090   4.93001   4.93212
 Alpha virt. eigenvalues --    4.94396   4.95135   4.96003   4.97121   4.97909
 Alpha virt. eigenvalues --    4.99108   4.99464   5.00123   5.01676   5.02953
 Alpha virt. eigenvalues --    5.03563   5.04960   5.06073   5.06473   5.06734
 Alpha virt. eigenvalues --    5.08095   5.08730   5.09372   5.10558   5.11308
 Alpha virt. eigenvalues --    5.11854   5.12031   5.13185   5.13328   5.13945
 Alpha virt. eigenvalues --    5.14196   5.14972   5.15837   5.16872   5.17495
 Alpha virt. eigenvalues --    5.17623   5.18829   5.19246   5.19441   5.20520
 Alpha virt. eigenvalues --    5.21256   5.22426   5.23100   5.24314   5.25015
 Alpha virt. eigenvalues --    5.25153   5.25974   5.26506   5.28584   5.29155
 Alpha virt. eigenvalues --    5.30215   5.31651   5.32249   5.33160   5.33858
 Alpha virt. eigenvalues --    5.33969   5.36084   5.36673   5.37239   5.38202
 Alpha virt. eigenvalues --    5.38624   5.40328   5.44667   5.46343   5.46744
 Alpha virt. eigenvalues --    5.47214   5.47743   5.48612   5.48888   5.49091
 Alpha virt. eigenvalues --    5.50167   5.50954   5.52167   5.52641   5.54038
 Alpha virt. eigenvalues --    5.54396   5.55263   5.55640   5.60054   5.60835
 Alpha virt. eigenvalues --    5.63282   5.63803   5.65543   5.66212   5.68584
 Alpha virt. eigenvalues --    5.71673   5.72868   5.75022   5.77063   5.77291
 Alpha virt. eigenvalues --    5.79227   5.81332   5.83364   5.83697   5.84144
 Alpha virt. eigenvalues --    5.84557   5.87569   5.89051   5.89651   5.95752
 Alpha virt. eigenvalues --    5.96241   5.97911   5.98306   5.99126   6.00552
 Alpha virt. eigenvalues --    6.02785   6.04513   6.05666   6.09374   6.11825
 Alpha virt. eigenvalues --    6.12537   6.17217   6.17670   6.17957   6.20266
 Alpha virt. eigenvalues --    6.24693   6.26013   6.29835   6.30689   6.35308
 Alpha virt. eigenvalues --    6.38184   6.38739   6.39549   6.41858   6.43480
 Alpha virt. eigenvalues --    6.44790   6.47407   6.47571   6.58554   6.63153
 Alpha virt. eigenvalues --    6.68058   6.69223   6.72202   6.78172   6.80628
 Alpha virt. eigenvalues --    6.83506   6.88315   6.89783   6.96526   6.97875
 Alpha virt. eigenvalues --    7.04812   7.07993   7.09502   7.10398   7.19234
 Alpha virt. eigenvalues --    7.22132   7.24475  22.26750  22.30856  22.42172
 Alpha virt. eigenvalues --   22.43517  22.45022  22.49297  22.51425  22.52979
 Alpha virt. eigenvalues --   22.54040  22.61206  22.63909  22.66034  22.76144
 Alpha virt. eigenvalues --   22.78105  22.79711  22.82291  22.86042  22.89727
 Alpha virt. eigenvalues --   22.91532  22.96074  22.96442  23.00377  23.08303
 Alpha virt. eigenvalues --   23.15874  23.19904  23.22219  23.22997  23.28778
 Alpha virt. eigenvalues --   23.31938  23.36001  23.41583  23.47963  23.50293
 Alpha virt. eigenvalues --   23.60201  23.64058  23.67343  23.73298  23.80087
 Alpha virt. eigenvalues --   32.37484  32.57790  32.78459  32.83732  32.86495
 Alpha virt. eigenvalues --   33.07111  43.86794  43.89352  43.91379  44.01521
 Alpha virt. eigenvalues --   44.05303
  Beta  occ. eigenvalues -- -256.54150 -30.30368 -26.13588 -26.12906 -26.12676
  Beta  occ. eigenvalues --  -19.36234 -19.33311 -19.33092 -19.27049 -19.24580
  Beta  occ. eigenvalues --  -14.55227 -14.52490 -14.50563 -14.50400 -14.50120
  Beta  occ. eigenvalues --  -14.49872 -10.44537 -10.42051 -10.39048 -10.37104
  Beta  occ. eigenvalues --  -10.36616 -10.36567 -10.36397 -10.36251 -10.36249
  Beta  occ. eigenvalues --  -10.36243 -10.36126 -10.35888 -10.34586 -10.33946
  Beta  occ. eigenvalues --  -10.33751 -10.33659 -10.33641 -10.33499 -10.33086
  Beta  occ. eigenvalues --  -10.33009 -10.32990 -10.32843 -10.32810 -10.32683
  Beta  occ. eigenvalues --  -10.32646 -10.32567 -10.32396 -10.32332 -10.32252
  Beta  occ. eigenvalues --  -10.31601 -10.31523 -10.31388 -10.31001 -10.30624
  Beta  occ. eigenvalues --  -10.30508 -10.30093 -10.29691 -10.29687  -3.63496
  Beta  occ. eigenvalues --   -2.40016  -2.38812  -2.37286  -1.25803  -1.25425
  Beta  occ. eigenvalues --   -1.17807  -1.17377  -1.12452  -1.09815  -1.09515
  Beta  occ. eigenvalues --   -1.08624  -1.08352  -1.07219  -1.02726  -0.95086
  Beta  occ. eigenvalues --   -0.94131  -0.93849  -0.93414  -0.92595  -0.92197
  Beta  occ. eigenvalues --   -0.91800  -0.91066  -0.89327  -0.88779  -0.88267
  Beta  occ. eigenvalues --   -0.87095  -0.86686  -0.84693  -0.82702  -0.82394
  Beta  occ. eigenvalues --   -0.82087  -0.81199  -0.79746  -0.79194  -0.79041
  Beta  occ. eigenvalues --   -0.77612  -0.76471  -0.76085  -0.75757  -0.74564
  Beta  occ. eigenvalues --   -0.72883  -0.72126  -0.71515  -0.70720  -0.70427
  Beta  occ. eigenvalues --   -0.69073  -0.66998  -0.66857  -0.65599  -0.64903
  Beta  occ. eigenvalues --   -0.64433  -0.63730  -0.63426  -0.62749  -0.62112
  Beta  occ. eigenvalues --   -0.60822  -0.60760  -0.59872  -0.59532  -0.58831
  Beta  occ. eigenvalues --   -0.58515  -0.58435  -0.58390  -0.57558  -0.56893
  Beta  occ. eigenvalues --   -0.56533  -0.55958  -0.55902  -0.55737  -0.55336
  Beta  occ. eigenvalues --   -0.54926  -0.54690  -0.54478  -0.54344  -0.54278
  Beta  occ. eigenvalues --   -0.54127  -0.53827  -0.53325  -0.53199  -0.52905
  Beta  occ. eigenvalues --   -0.52779  -0.52578  -0.52388  -0.52043  -0.51814
  Beta  occ. eigenvalues --   -0.51802  -0.51305  -0.51173  -0.51032  -0.50620
  Beta  occ. eigenvalues --   -0.50307  -0.50088  -0.49821  -0.49616  -0.49556
  Beta  occ. eigenvalues --   -0.49352  -0.48996  -0.48630  -0.48246  -0.48095
  Beta  occ. eigenvalues --   -0.47626  -0.47217  -0.47130  -0.46993  -0.46737
  Beta  occ. eigenvalues --   -0.46374  -0.46073  -0.45778  -0.45745  -0.45012
  Beta  occ. eigenvalues --   -0.44110  -0.43820  -0.43442  -0.43083  -0.42627
  Beta  occ. eigenvalues --   -0.42037  -0.41470  -0.40395  -0.40042  -0.39715
  Beta  occ. eigenvalues --   -0.39474  -0.37337  -0.36859  -0.36584  -0.35442
  Beta  occ. eigenvalues --   -0.35001  -0.34614  -0.34592  -0.32277  -0.30914
  Beta  occ. eigenvalues --   -0.30504  -0.27627
  Beta virt. eigenvalues --   -0.21703  -0.19876  -0.19818  -0.17736  -0.16063
  Beta virt. eigenvalues --   -0.15732  -0.12091  -0.09468  -0.09199  -0.08508
  Beta virt. eigenvalues --   -0.08440  -0.07699  -0.06525  -0.06140  -0.05697
  Beta virt. eigenvalues --   -0.04613  -0.03958  -0.03561  -0.03257  -0.03134
  Beta virt. eigenvalues --   -0.02946  -0.02051  -0.01831  -0.01214  -0.01145
  Beta virt. eigenvalues --   -0.00681  -0.00280   0.00008   0.00154   0.00423
  Beta virt. eigenvalues --    0.00682   0.00838   0.01080   0.01754   0.01789
  Beta virt. eigenvalues --    0.02080   0.02405   0.02497   0.02836   0.02875
  Beta virt. eigenvalues --    0.03199   0.03485   0.03589   0.03883   0.04212
  Beta virt. eigenvalues --    0.04444   0.04702   0.04908   0.04950   0.05149
  Beta virt. eigenvalues --    0.05426   0.05545   0.05720   0.05918   0.06196
  Beta virt. eigenvalues --    0.06303   0.06445   0.06657   0.06765   0.07182
  Beta virt. eigenvalues --    0.07339   0.07529   0.07656   0.07933   0.08383
  Beta virt. eigenvalues --    0.08426   0.08539   0.08991   0.09089   0.09426
  Beta virt. eigenvalues --    0.09985   0.10003   0.10303   0.10386   0.10515
  Beta virt. eigenvalues --    0.10637   0.10900   0.11088   0.11246   0.11585
  Beta virt. eigenvalues --    0.11847   0.12175   0.12348   0.12649   0.12792
  Beta virt. eigenvalues --    0.12839   0.13086   0.13240   0.13520   0.13680
  Beta virt. eigenvalues --    0.13986   0.14329   0.14543   0.14835   0.15048
  Beta virt. eigenvalues --    0.15287   0.15441   0.15666   0.15738   0.15901
  Beta virt. eigenvalues --    0.16346   0.16503   0.16538   0.16685   0.17120
  Beta virt. eigenvalues --    0.17342   0.17593   0.17779   0.18049   0.18348
  Beta virt. eigenvalues --    0.18466   0.18804   0.18977   0.19251   0.19427
  Beta virt. eigenvalues --    0.19621   0.19993   0.20180   0.20502   0.20689
  Beta virt. eigenvalues --    0.20854   0.20990   0.21200   0.21323   0.21680
  Beta virt. eigenvalues --    0.21879   0.22004   0.22336   0.22500   0.22668
  Beta virt. eigenvalues --    0.23111   0.23509   0.23760   0.24033   0.24042
  Beta virt. eigenvalues --    0.24500   0.24707   0.25008   0.25140   0.25524
  Beta virt. eigenvalues --    0.25648   0.25777   0.26043   0.26432   0.26491
  Beta virt. eigenvalues --    0.26768   0.27044   0.27547   0.27638   0.28019
  Beta virt. eigenvalues --    0.28084   0.28197   0.28324   0.28508   0.28744
  Beta virt. eigenvalues --    0.28872   0.29063   0.29316   0.29669   0.30000
  Beta virt. eigenvalues --    0.30349   0.30529   0.30758   0.30882   0.31079
  Beta virt. eigenvalues --    0.31158   0.31594   0.31703   0.32036   0.32342
  Beta virt. eigenvalues --    0.32497   0.32803   0.33029   0.33107   0.33329
  Beta virt. eigenvalues --    0.33373   0.33696   0.33981   0.34135   0.34200
  Beta virt. eigenvalues --    0.34400   0.34451   0.34792   0.34898   0.35185
  Beta virt. eigenvalues --    0.35291   0.35560   0.35770   0.36095   0.36329
  Beta virt. eigenvalues --    0.36545   0.36766   0.36822   0.37021   0.37260
  Beta virt. eigenvalues --    0.37452   0.37529   0.37790   0.37849   0.38017
  Beta virt. eigenvalues --    0.38272   0.38372   0.38620   0.38762   0.39114
  Beta virt. eigenvalues --    0.39208   0.39253   0.39652   0.39743   0.39925
  Beta virt. eigenvalues --    0.40229   0.40299   0.40365   0.40660   0.40796
  Beta virt. eigenvalues --    0.40972   0.41298   0.41368   0.41605   0.41729
  Beta virt. eigenvalues --    0.41891   0.42059   0.42236   0.42298   0.42801
  Beta virt. eigenvalues --    0.43063   0.43143   0.43429   0.43581   0.43705
  Beta virt. eigenvalues --    0.44190   0.44297   0.44489   0.45046   0.45132
  Beta virt. eigenvalues --    0.45376   0.45563   0.45839   0.46021   0.46211
  Beta virt. eigenvalues --    0.46257   0.46396   0.46693   0.46836   0.47135
  Beta virt. eigenvalues --    0.47411   0.47583   0.47875   0.47934   0.48143
  Beta virt. eigenvalues --    0.48460   0.48604   0.48721   0.49027   0.49529
  Beta virt. eigenvalues --    0.49811   0.49995   0.50395   0.50799   0.50869
  Beta virt. eigenvalues --    0.51014   0.51344   0.51531   0.51678   0.51869
  Beta virt. eigenvalues --    0.52217   0.52502   0.52640   0.52907   0.53096
  Beta virt. eigenvalues --    0.53216   0.53485   0.53943   0.54036   0.54151
  Beta virt. eigenvalues --    0.54328   0.54520   0.54771   0.55077   0.55167
  Beta virt. eigenvalues --    0.55723   0.55795   0.56041   0.56164   0.56545
  Beta virt. eigenvalues --    0.56638   0.57035   0.57158   0.57338   0.57724
  Beta virt. eigenvalues --    0.57883   0.58321   0.58822   0.58944   0.59113
  Beta virt. eigenvalues --    0.59527   0.59765   0.60300   0.60453   0.60664
  Beta virt. eigenvalues --    0.60765   0.60910   0.61364   0.61478   0.61813
  Beta virt. eigenvalues --    0.62003   0.62311   0.62762   0.62965   0.63164
  Beta virt. eigenvalues --    0.63344   0.63689   0.64207   0.64556   0.64808
  Beta virt. eigenvalues --    0.64932   0.65655   0.65755   0.66128   0.66466
  Beta virt. eigenvalues --    0.66644   0.66850   0.67086   0.67785   0.68120
  Beta virt. eigenvalues --    0.68509   0.68681   0.68928   0.69295   0.69945
  Beta virt. eigenvalues --    0.70015   0.70243   0.70672   0.71008   0.71252
  Beta virt. eigenvalues --    0.71589   0.71998   0.72179   0.72330   0.73076
  Beta virt. eigenvalues --    0.73372   0.73550   0.73865   0.73980   0.74274
  Beta virt. eigenvalues --    0.74599   0.74919   0.75273   0.75626   0.75876
  Beta virt. eigenvalues --    0.76004   0.76266   0.76649   0.77039   0.77375
  Beta virt. eigenvalues --    0.77536   0.77776   0.78276   0.78545   0.78906
  Beta virt. eigenvalues --    0.79239   0.79303   0.79875   0.80124   0.80543
  Beta virt. eigenvalues --    0.80876   0.81107   0.81569   0.81964   0.82232
  Beta virt. eigenvalues --    0.82302   0.83041   0.83232   0.83454   0.83789
  Beta virt. eigenvalues --    0.83944   0.84314   0.84539   0.84609   0.84964
  Beta virt. eigenvalues --    0.85048   0.85152   0.85411   0.85922   0.86433
  Beta virt. eigenvalues --    0.86729   0.86909   0.87348   0.87455   0.87517
  Beta virt. eigenvalues --    0.87746   0.88042   0.88487   0.88750   0.88911
  Beta virt. eigenvalues --    0.89043   0.89520   0.89796   0.89949   0.90097
  Beta virt. eigenvalues --    0.90252   0.90709   0.90974   0.91479   0.91631
  Beta virt. eigenvalues --    0.91813   0.92584   0.92983   0.93211   0.93306
  Beta virt. eigenvalues --    0.93694   0.94106   0.94529   0.94863   0.95175
  Beta virt. eigenvalues --    0.95329   0.95678   0.95800   0.96009   0.96789
  Beta virt. eigenvalues --    0.97068   0.97385   0.98036   0.98380   0.98565
  Beta virt. eigenvalues --    0.98709   0.99033   0.99443   0.99950   1.00137
  Beta virt. eigenvalues --    1.00497   1.00696   1.01054   1.01663   1.02029
  Beta virt. eigenvalues --    1.02213   1.02466   1.02984   1.03292   1.03874
  Beta virt. eigenvalues --    1.03935   1.04120   1.04604   1.05169   1.05511
  Beta virt. eigenvalues --    1.05806   1.06273   1.06468   1.06721   1.06976
  Beta virt. eigenvalues --    1.07383   1.07985   1.08239   1.08385   1.08500
  Beta virt. eigenvalues --    1.09427   1.09814   1.10105   1.10321   1.10522
  Beta virt. eigenvalues --    1.10921   1.11631   1.11803   1.12113   1.12888
  Beta virt. eigenvalues --    1.13202   1.13414   1.13834   1.14090   1.14286
  Beta virt. eigenvalues --    1.14899   1.15432   1.15662   1.16161   1.16301
  Beta virt. eigenvalues --    1.16803   1.17040   1.17333   1.17614   1.17853
  Beta virt. eigenvalues --    1.18149   1.18592   1.18933   1.19421   1.19593
  Beta virt. eigenvalues --    1.19931   1.20837   1.20972   1.21372   1.21575
  Beta virt. eigenvalues --    1.22335   1.22620   1.22888   1.23216   1.23628
  Beta virt. eigenvalues --    1.23864   1.24133   1.24444   1.24522   1.25332
  Beta virt. eigenvalues --    1.25539   1.26005   1.26986   1.27091   1.27492
  Beta virt. eigenvalues --    1.27639   1.28056   1.28484   1.28950   1.29559
  Beta virt. eigenvalues --    1.29602   1.30059   1.30227   1.30886   1.31798
  Beta virt. eigenvalues --    1.32015   1.32384   1.32897   1.33466   1.33883
  Beta virt. eigenvalues --    1.34179   1.34432   1.35001   1.35309   1.35611
  Beta virt. eigenvalues --    1.35665   1.36690   1.37105   1.37392   1.37510
  Beta virt. eigenvalues --    1.37738   1.37980   1.38188   1.38517   1.38888
  Beta virt. eigenvalues --    1.39395   1.39869   1.40267   1.40435   1.40929
  Beta virt. eigenvalues --    1.41252   1.41667   1.42165   1.42449   1.42705
  Beta virt. eigenvalues --    1.43097   1.43463   1.43569   1.43954   1.44343
  Beta virt. eigenvalues --    1.44581   1.44931   1.45100   1.45354   1.45511
  Beta virt. eigenvalues --    1.45834   1.46101   1.46268   1.46595   1.46976
  Beta virt. eigenvalues --    1.47146   1.47228   1.47679   1.47833   1.47901
  Beta virt. eigenvalues --    1.48449   1.48969   1.49043   1.49403   1.49457
  Beta virt. eigenvalues --    1.49871   1.50109   1.50545   1.50772   1.51314
  Beta virt. eigenvalues --    1.51541   1.51824   1.51963   1.52405   1.52544
  Beta virt. eigenvalues --    1.52816   1.52894   1.53572   1.53711   1.54050
  Beta virt. eigenvalues --    1.54091   1.54304   1.54690   1.54953   1.55133
  Beta virt. eigenvalues --    1.55638   1.55751   1.56047   1.56593   1.56705
  Beta virt. eigenvalues --    1.56993   1.57192   1.57619   1.57696   1.58506
  Beta virt. eigenvalues --    1.58694   1.58830   1.59157   1.59486   1.59719
  Beta virt. eigenvalues --    1.59866   1.60023   1.60746   1.60885   1.61760
  Beta virt. eigenvalues --    1.61812   1.62133   1.62353   1.62593   1.63184
  Beta virt. eigenvalues --    1.63573   1.63677   1.63942   1.64137   1.64542
  Beta virt. eigenvalues --    1.64698   1.64902   1.65156   1.65494   1.65571
  Beta virt. eigenvalues --    1.65838   1.66543   1.67111   1.67556   1.67802
  Beta virt. eigenvalues --    1.68312   1.68620   1.68822   1.69174   1.69526
  Beta virt. eigenvalues --    1.70573   1.70970   1.71093   1.71619   1.72240
  Beta virt. eigenvalues --    1.72320   1.73042   1.73297   1.73987   1.74344
  Beta virt. eigenvalues --    1.74618   1.75207   1.75869   1.76222   1.76399
  Beta virt. eigenvalues --    1.76435   1.77055   1.77235   1.77672   1.77901
  Beta virt. eigenvalues --    1.78262   1.78448   1.79015   1.79646   1.79886
  Beta virt. eigenvalues --    1.80200   1.80465   1.80956   1.81186   1.81368
  Beta virt. eigenvalues --    1.81794   1.82345   1.82736   1.83097   1.83609
  Beta virt. eigenvalues --    1.83894   1.84549   1.84774   1.85260   1.85464
[...]
  1659. RY*(   3) H  84                  0.00021     1.71809   
  1660. RY*(   4) H  84                  0.00011     2.09527   
  1661. RY*(   5) H  84                  0.00000     3.14156   
  1662. RY*(   1) H  85                  0.00143     0.62392   
  1663. RY*(   2) H  85                  0.00014     2.13120   
  1664. RY*(   3) H  85                  0.00011     2.13708   
  1665. RY*(   4) H  85                  0.00006     2.98664   
  1666. RY*(   5) H  85                  0.00000     3.14065   
  1667. RY*(   1) H  86                  0.00045     1.00533   
  1668. RY*(   2) H  86                  0.00009     2.09014   
  1669. RY*(   3) H  86                  0.00005     2.50624   
  1670. RY*(   4) H  86                  0.00005     1.93889   
  1671. RY*(   5) H  86                  0.00001     2.93051   
  1672. RY*(   1) H  87                  0.00043     1.35281   
  1673. RY*(   2) H  87                  0.00010     1.87538   
  1674. RY*(   3) H  87                  0.00008     2.19942   
  1675. RY*(   4) H  87                  0.00003     2.29190   
  1676. RY*(   5) H  87                  0.00001     2.94184   
  1677. RY*(   1) H  88                  0.00026     1.15047   
  1678. RY*(   2) H  88                  0.00006     1.55339   
  1679. RY*(   3) H  88                  0.00007     2.29846   
  1680. RY*(   4) H  88                  0.00003     2.32349   
  1681. RY*(   5) H  88                  0.00001     2.77403   
  1682. RY*(   1) H  89                  0.00033     1.09082   
  1683. RY*(   2) H  89                  0.00007     2.05599   
  1684. RY*(   3) H  89                  0.00005     2.10780   
  1685. RY*(   4) H  89                  0.00004     1.98071   
  1686. RY*(   5) H  89                  0.00001     3.03665   
  1687. RY*(   1) H  90                  0.00045     1.56773   
  1688. RY*(   2) H  90                  0.00033     2.10993   
  1689. RY*(   3) H  90                  0.00017     2.17258   
  1690. RY*(   4) H  90                  0.00008     1.32238   
  1691. RY*(   5) H  90                  0.00000     3.15925   
  1692. BD*(   1) C   1 - C   2          0.00651     0.29477   
  1693. BD*(   1) C   1 - H  51          0.00226     0.31169   
  1694. BD*(   1) C   1 - H  52          0.00499     0.30866   
  1695. BD*(   1) C   1 - H  53          0.00251     0.30558   
  1696. BD*(   1) C   2 - N   3          0.01267     0.35121   
  1697. BD*(   1) C   2 - C   4          0.00997     0.45073   
  1698. BD*(   1) N   3 - C   5          0.01057     0.37012   
  1699. BD*(   1) N   3 - H  55          0.00664     0.29223   
  1700. BD*(   1) C   4 - N   6          0.00716     0.34996   
  1701. BD*(   1) C   4 - H  54          0.00602     0.32158   
  1702. BD*(   1) C   5 - N   6          0.00652     0.41742   
  1703. BD*(   2) C   5 - N   6          0.22050    -0.12117  7(v),296(g)
  1704. BD*(   1) C   5 - H  56          0.00847     0.29602   
  1705. BD*(   1) N   6 -Fe   7          0.04956     0.09766   
  1706. BD*(   1)Fe   7 - N  12          0.03882     0.25865   
  1707. BD*(   1)Fe   7 - N  23          0.04153     0.24030   
  1708. BD*(   1)Fe   7 - N  31          0.04732     0.23156   
  1709. BD*(   1)Fe   7 - N  39          0.04006     0.25219   
  1710. BD*(   1) C   8 - C  13          0.01072     0.41745   
  1711. BD*(   2) C   8 - C  13          0.22878    -0.08039  1731(v),184(v),1728(v)
                                                    374(g),508(g),506(g)
  1712. BD*(   1) C   8 - C  43          0.00926     0.48426   
  1713. BD*(   1) C   8 - H  85          0.00772     0.32754   
  1714. BD*(   1) C   9 - C  16          0.01120     0.43274   
  1715. BD*(   1) C   9 - C  24          0.00980     0.47180   
  1716. BD*(   2) C   9 - C  24          0.18796    -0.05896  1752(v),1728(v),1719(r)
                                                    794(g),401(g)
  1717. BD*(   1) C   9 - H  65          0.00616     0.34661   
  1718. BD*(   1) C  10 - C  27          0.00888     0.50402   
  1719. BD*(   2) C  10 - C  27          0.17034    -0.04991  1752(v),1765(v),1716(r)
                                                    427(g),872(g)
  1720. BD*(   1) C  10 - C  32          0.01122     0.44433   
  1721. BD*(   1) C  10 - H  69          0.00646     0.34482   
  1722. BD*(   1) C  11 - C  35          0.01085     0.47412   
  1723. BD*(   2) C  11 - C  35          0.19798    -0.06068  1769(v),1782(v),1765(v)
                                                    452(g),1080(g),1777(r)
  1724. BD*(   1) C  11 - C  40          0.00954     0.51695   
  1725. BD*(   1) C  11 - H  76          0.00737     0.34133   
  1726. BD*(   1) N  12 - C  13          0.01490     0.31467   
  1727. BD*(   1) N  12 - C  16          0.01334     0.38126   
  1728. BD*(   2) N  12 - C  16          0.33552    -0.11189  1716(v),176(v),1731(v)
                                                    1711(v),583(g),478(g),480(g)
                                                    1804(r)
  1729. BD*(   1) C  13 - C  14          0.01368     0.40410   
  1730. BD*(   1) C  14 - C  15          0.01132     0.46168   
  1731. BD*(   2) C  14 - C  15          0.14472    -0.04933  1711(v),1728(v),1738(v)
                                                    1745(r),1736(v),1739(v)
                                                    1735(v),558(g)
  1732. BD*(   1) C  14 - C  18          0.01261     0.26903   
  1733. BD*(   1) C  15 - C  16          0.01510     0.41214   
  1734. BD*(   1) C  15 - C  17          0.00761     0.29250   
  1735. BD*(   1) C  17 - H  66          0.00328     0.31693   
  1736. BD*(   1) C  17 - H  67          0.00457     0.31590   
  1737. BD*(   1) C  17 - H  68          0.00278     0.31962   
  1738. BD*(   1) C  18 - C  19          0.00759     0.23622   
  1739. BD*(   1) C  18 - H  86          0.00713     0.30543   
  1740. BD*(   1) C  18 - H  87          0.00692     0.28963   
  1741. BD*(   1) C  19 - C  20          0.04000     0.22725   
  1742. BD*(   1) C  19 - H  88          0.00571     0.30442   
  1743. BD*(   1) C  19 - H  89          0.00518     0.31501   
  1744. BD*(   1) C  20 - O  21          0.02549     0.42257   
  1745. BD*(   2) C  20 - O  21          0.10170    -0.03941  1744(g),1738(v),1731(r)
                                                    1747(v)
  1746. BD*(   1) C  20 - O  22          0.03800     0.38035   
  1747. BD*(   1) O  22 - H  90          0.00640     0.28380   
  1748. BD*(   1) N  23 - C  24          0.01399     0.36340   
  1749. BD*(   1) N  23 - C  27          0.01437     0.34882   
  1750. BD*(   1) C  24 - C  25          0.01549     0.41411   
  1751. BD*(   1) C  25 - C  26          0.01032     0.51937   
  1752. BD*(   2) C  25 - C  26          0.11931    -0.02915  1760(v),1719(v),1716(v)
                                                    1757(v)
  1753. BD*(   1) C  25 - C  28          0.00891     0.28668   
  1754. BD*(   1) C  26 - C  27          0.01859     0.34920   
  1755. BD*(   1) C  26 - C  29          0.01360     0.33832   
  1756. BD*(   1) C  28 - H  62          0.00259     0.32451   
  1757. BD*(   1) C  28 - H  63          0.00439     0.32552   
  1758. BD*(   1) C  28 - H  64          0.00316     0.34009   
  1759. BD*(   1) C  29 - C  30          0.00321     0.57235   
  1760. BD*(   2) C  29 - C  30          0.02676    -0.02857   
  1761. BD*(   1) C  29 - H  61          0.00988     0.35386   
  1762. BD*(   1) C  30 - H  59          0.00478     0.35837   
  1763. BD*(   1) C  30 - H  60          0.00420     0.36333   
  1764. BD*(   1) N  31 - C  32          0.01480     0.34762   
  1765. BD*(   2) N  31 - C  32          0.34007    -0.11665  1719(v),1769(v),1723(v)
                                                    176(v),1000(g),177(v)
                                                    1764(g),998(g),974(g),972(g)
                                                    427(v)
  1766. BD*(   1) N  31 - C  35          0.01378     0.34950   
  1767. BD*(   1) C  32 - C  33          0.01423     0.42663   
  1768. BD*(   1) C  33 - C  34          0.01057     0.49647   
  1769. BD*(   2) C  33 - C  34          0.16866    -0.04128  1777(v),1723(v),1765(v)
                                                    1773(v),1026(g),1052(g)
                                                    1774(v)
  1770. BD*(   1) C  33 - C  36          0.00805     0.29310   
  1771. BD*(   1) C  34 - C  35          0.01455     0.39633   
  1772. BD*(   1) C  34 - C  37          0.01477     0.31683   
  1773. BD*(   1) C  36 - H  70          0.00446     0.32354   
  1774. BD*(   1) C  36 - H  71          0.00248     0.32260   
  1775. BD*(   1) C  36 - H  72          0.00333     0.33447   
  1776. BD*(   1) C  37 - C  38          0.00319     0.60263   
  1777. BD*(   2) C  37 - C  38          0.05561    -0.04741   
  1778. BD*(   1) C  37 - H  75          0.01052     0.32668   
  1779. BD*(   1) C  38 - H  73          0.00429     0.33730   
  1780. BD*(   1) C  38 - H  74          0.00476     0.33402   
  1781. BD*(   1) N  39 - C  40          0.01348     0.39524   
  1782. BD*(   2) N  39 - C  40          0.31261    -0.10813  1723(v),1786(v),184(v)
                                                    176(v),1208(g),1180(g)
                                                    1207(g),452(v),1184(g)
                                                    177(v),1804(r)
  1783. BD*(   1) N  39 - C  43          0.01486     0.33329   
  1784. BD*(   1) C  40 - C  41          0.01867     0.34722   
  1785. BD*(   1) C  41 - C  42          0.00936     0.60076   
  1786. BD*(   2) C  41 - C  42          0.09988    -0.01576   
  1787. BD*(   1) C  41 - C  44          0.00946     0.25732   
  1788. BD*(   1) C  42 - C  43          0.01708     0.39363   
  1789. BD*(   1) C  42 - C  45          0.01313     0.27355   
  1790. BD*(   1) C  44 - H  77          0.00370     0.32220   
  1791. BD*(   1) C  44 - H  78          0.00245     0.32292   
  1792. BD*(   1) C  44 - H  79          0.00243     0.33006   
  1793. BD*(   1) C  45 - C  46          0.00720     0.24364   
  1794. BD*(   1) C  45 - H  80          0.00661     0.32812   
  1795. BD*(   1) C  45 - H  81          0.00596     0.31197   
  1796. BD*(   1) C  46 - C  47          0.03437     0.29648   
  1797. BD*(   1) C  46 - H  82          0.00660     0.30942   
  1798. BD*(   1) C  46 - H  83          0.00498     0.31507   
  1799. BD*(   1) C  47 - O  48          0.02252     0.49224   
  1800. BD*(   2) C  47 - O  48          0.09926    -0.05649   
  1801. BD*(   1) C  47 - O  49          0.03381     0.47094   
  1802. BD*(   1) O  49 - H  84          0.00729     0.30434   
       -------------------------------
              Total Lewis  176.81238  ( 97.1049%)
        Valence non-Lewis    4.92061  (  2.7024%)
        Rydberg non-Lewis    0.35092  (  0.1927%)
       -------------------------------
            Total unit  1  182.08391  (100.0000%)
           Charge unit  1    0.91609

 Molecular unit  2  (H2O)
   114. BD (   1) O  50 - H  57          0.99593    -0.88597  177(r),176(r),1804(g),351(r)
                                                    349(r),347(r),348(r),321(r)
                                                    355(r),1709(r),770(r),324(r)
                                                    322(r),354(r),765(r)
   115. BD (   1) O  50 - H  58          0.90849    -0.90355  177(r),176(r),1705(r)
                                                    1708(r),1804(g),1524(v)
                                                    1707(r),1727(r),1182(r)
                                                    479(r),357(r),355(r),1783(r)
                                                    1781(r),322(r),1726(r)
                                                    1706(r),1764(r),366(r)
                                                    1183(r),1766(r),352(r)
                                                    1748(r),351(r),1749(r)
                                                    481(r),353(r),323(r),973(r)
                                                    1709(r),975(r),354(r)
                                                    1782(r)
   173. CR (   1) O  50                  0.99992   -19.12201  177(r),176(r),1527(v)
                                                    1524(v),352(r),1705(r)
                                                    1706(r)
   189. LP (   1) O  50                  0.99157    -0.54860  177(r),176(r),1709(r)
                                                    1707(r),1528(v),1522(v)
                                                    349(r),350(r),1706(r)
                                                    1782(r),1180(r),322(r)
                                                    355(r),353(r),765(r),324(r)
   190. LP (   2) O  50                  0.98487    -0.64231  177(r),1708(r),176(r)
                                                    1706(r),1529(v),1523(v)
                                                    1528(v),1522(v),354(r)
                                                    973(r),350(r),355(r),348(r)
                                                    352(r),1728(r),351(r),478(r)
                                                    323(r),1765(r),764(r)
                                                    1707(r),975(r),1705(r)
                                                    357(r)
  1466. RY*(   1) O  50                  0.00098     0.70303   
  1467. RY*(   2) O  50                  0.00078     0.79931   
  1468. RY*(   3) O  50                  0.00041     1.15215   
  1469. RY*(   4) O  50                  0.00014     1.00213   
  1470. RY*(   5) O  50                  0.00003     3.64415   
  1471. RY*(   6) O  50                  0.00003     2.04963   
  1472. RY*(   7) O  50                  0.00000     2.82223   
  1473. RY*(   8) O  50                  0.00000     4.61702   
  1474. RY*(   9) O  50                  0.00000     3.18020   
  1475. RY*(  10) O  50                  0.00000    41.88129   
  1476. RY*(  11) O  50                  0.00000     6.19644   
  1477. RY*(  12) O  50                  0.00001     2.99951   
  1478. RY*(  13) O  50                  0.00000     6.44822   
  1479. RY*(  14) O  50                  0.00001     2.20378   
  1480. RY*(  15) O  50                  0.00000     6.37719   
  1481. RY*(  16) O  50                  0.00001     2.15963   
  1482. RY*(  17) O  50                  0.00000     6.27184   
  1483. RY*(  18) O  50                  0.00001     2.26953   
  1484. RY*(  19) O  50                  0.00000     6.46496   
  1485. RY*(  20) O  50                  0.00000     5.33227   
  1486. RY*(  21) O  50                  0.00000     5.45212   
  1487. RY*(  22) O  50                  0.00000     5.46799   
  1488. RY*(  23) O  50                  0.00000     5.45893   
  1489. RY*(  24) O  50                  0.00000     5.36515   
  1490. RY*(  25) O  50                  0.00000     5.19861   
  1491. RY*(  26) O  50                  0.00000     5.16188   
  1522. RY*(   1) H  57                  0.00061     1.90321   
  1523. RY*(   2) H  57                  0.00032     1.81109   
  1524. RY*(   3) H  57                  0.00021     2.16566   
  1525. RY*(   4) H  57                  0.00008     0.87902   
  1526. RY*(   5) H  57                  0.00000     2.81235   
  1527. RY*(   1) H  58                  0.00182     2.42024   
  1528. RY*(   2) H  58                  0.00089     2.17107   
  1529. RY*(   3) H  58                  0.00074     2.62644   
  1530. RY*(   4) H  58                  0.00031     2.38458   
  1531. RY*(   5) H  58                  0.00009     3.61100   
  1803. BD*(   1) O  50 - H  57          0.00142     0.33966   
  1804. BD*(   1) O  50 - H  58          0.02629     0.31897   
       -------------------------------
              Total Lewis    4.88079  ( 99.2841%)
        Valence non-Lewis    0.02772  (  0.5639%)
        Rydberg non-Lewis    0.00747  (  0.1520%)
       -------------------------------
            Total unit  2    4.91598  (100.0000%)
           Charge unit  2    0.08402
 1\1\GINC-NODE633\SP\UPBE1PBE\def2TZVP\C38H40Fe1N6O5(1+,2)\ZHARTOVSKA\1
 2-Sep-2022\0\\# PBE1PBE/def2TZVP empiricaldispersion=GD3BJ scf=maxcycl
 e=999 geom=check pop=nbo\\1a6k_III_D\\1,2\C,0,9.492,29.440001,2.541\C,
 0,10.712,29.318001,3.393\N,0,11.007,30.238001,4.345\C,0,11.762,28.437,
 3.339\C,0,12.181,29.896999,4.878\N,0,12.674,28.809,4.311\Fe,0,14.594,2
 7.968,4.72\C,0,15.966,31.09,4.996\C,0,13.915,27.936001,8.079\C,0,13.41
 6,24.757,4.507\C,0,15.491,27.867001,1.465\N,0,14.946,29.202,6.28\C,0,1
 5.449,30.523001,6.183\C,0,15.363,31.157,7.454\C,0,14.82,30.256001,8.35
 3\C,0,14.534,29.1,7.582\C,0,14.555,30.398001,9.834\C,0,15.764,32.60300
 1,7.755\C,0,14.507,33.476002,7.966\C,0,13.62,33.509998,6.704\O,0,12.46
 6,33.068001,6.832\O,0,14.135,33.952,5.64\N,0,13.856,26.594999,6.046\C,
 0,13.58,26.785,7.394\C,0,12.943,25.636,7.942\C,0,12.796,24.715,6.966\C
 ,0,13.334,25.334,5.735\C,0,12.508,25.525,9.403\C,0,12.252,23.320999,7.
 02\C,0,12.407,22.542999,8.069\N,0,14.4,26.598,3.235\C,0,13.945,25.284,
 3.32\C,0,14.146,24.589001,2.11\C,0,14.75,25.464001,1.255\C,0,14.944,26
 .698999,1.957\C,0,13.788,23.136999,1.853\C,0,15.347,25.237,-0.099\C,0,
 15.181,24.205,-0.871\N,0,15.52,29.250999,3.447\C,0,15.745,29.018,2.123
 \C,0,16.482,30.193001,1.605\C,0,16.632,31.055,2.561\C,0,16.017,30.532,
 3.751\C,0,16.954,30.298,0.127\C,0,17.452999,32.355,2.535\C,0,18.951,32
 .058998,2.787\C,0,19.837,33.250999,2.699\O,0,20.240999,33.617001,1.585
 \O,0,20.27,33.77,3.722\O,0,16.525,27.106001,4.962\H,0,9.70419031,29.07
 10251,1.55930144\H,0,8.6969299,28.86864515,2.9726434\H,0,9.2005601,30.
 46776472,2.48046469\H,0,11.85852264,27.61061793,2.66618796\H,0,10.4474
 2499,31.02652513,4.60015781\H,0,12.66363881,30.43645646,5.6660009\H,0,
 17.37633133,27.54966188,4.962\H,0,15.82293541,27.76075691,4.962\H,0,13
 .31919088,22.57333311,8.62746902\H,0,11.62091384,21.87970286,8.3639691
 2\H,0,11.7171759,22.94372358,6.17352116\H,0,13.24401061,25.98321394,10
 .03007923\H,0,11.56896924,26.02088759,9.53421255\H,0,12.40648993,24.49
 319075,9.6675097\H,0,13.67346492,27.94519892,9.12134169\H,0,15.3525703
 5,30.94823716,10.28789613\H,0,13.63234209,30.91899322,9.98289421\H,0,1
 4.49245622,29.4273147,10.27982101\H,0,13.02291944,23.76433016,4.436329
 91\H,0,14.5528405,22.50482949,2.25335075\H,0,12.85486359,22.91075917,2
 .32519909\H,0,13.70385204,22.97152843,0.79922649\H,0,15.96027735,23.47
 813803,-0.96742868\H,0,14.26503471,24.0820867,-1.41025866\H,0,15.98229
 778,26.01230147,-0.47343873\H,0,15.74718928,27.85898664,0.42615313\H,0
 ,17.89469238,29.80015652,0.01677426\H,0,16.22981868,29.83773794,-0.512
 23411\H,0,17.06225553,31.32835166,-0.14049992\H,0,17.34203994,32.82298
 204,1.57918574\H,0,17.09142995,33.0155708,3.2951408\H,0,19.0522952,31.
 63334352,3.76345151\H,0,19.27958556,31.33914263,2.06676408\H,0,21.2173
 2679,33.8403419,3.86065054\H,0,16.36675141,32.0782105,5.08396762\H,0,1
 6.3636287,32.62654858,8.64088427\H,0,16.33029991,32.99104423,6.9342522
 6\H,0,14.81112463,34.47346653,8.20573469\H,0,13.93901555,33.07868159,8
 .78112585\H,0,15.08988726,33.98995872,5.54862466\\Version=ES64L-G16Rev
 A.03\State=2-A\HF=-3438.2771778\S2=0.957205\S2-1=0.\S2A=0.761871\RMSD=
 1.425e-09\Dipole=-0.6441919,-0.4839721,0.7060865\Quadrupole=-4.3029986
 ,3.7745882,0.5284104,16.8691262,11.1716159,21.1775318\PG=C01 [X(C38H40
 Fe1N6O5)]\\@


 SEE YOU NOW,
 YOUR BAIT OF FALSEHOOD TAKES THIS CARP OF TRUTH.
 AND THUS DO WE OF WISDOM AND OF REACH...
 BY INDIRECTIONS FIND DIRECTIONS OUT.    -- HAMLET, II, 1
 Job cpu time:      16 days 17 hours 51 minutes  8.9 seconds.
 Elapsed time:       4 days  4 hours 45 minutes 29.6 seconds.
 File lengths (MBytes):  RWF=   2989 Int=      0 D2E=      0 Chk=    250 Scr=      1
 Normal termination of Gaussian 16 at Mon Sep 12 16:28:41 2022.
