 Entering Gaussian System, Link 0=g16
 Input=/net/homes/chemie/zhartovska/work/BioModel/Konrad/1a6k/1a6k05/Teil1/def2TZVP/nbo/1a6k05.com
 Output=/net/homes/chemie/zhartovska/work/BioModel/Konrad/1a6k/1a6k05/Teil1/def2TZVP/nbo/1a6k05.log
 Initial command:
 /afs/math/software/gaussian/g16.A03/g16/l1.exe "/scratch/zhartovska_gaussian.p8dlxgq/Gau-8768.inp" -scrdir="/scratch/zhartovska_gaussian.p8dlxgq/"
 Entering Link 1 = /afs/math/software/gaussian/g16.A03/g16/l1.exe PID=      8769.
  
 Copyright (c) 1988,1990,1992,1993,1995,1998,2003,2009,2016,
            Gaussian, Inc.  All Rights Reserved.
  
 This is part of the Gaussian(R) 16 program.  It is based on
 the Gaussian(R) 09 system (copyright 2009, Gaussian, Inc.),
 the Gaussian(R) 03 system (copyright 2003, Gaussian, Inc.),
 the Gaussian(R) 98 system (copyright 1998, Gaussian, Inc.),
 the Gaussian(R) 94 system (copyright 1995, Gaussian, Inc.),
 the Gaussian 92(TM) system (copyright 1992, Gaussian, Inc.),
 the Gaussian 90(TM) system (copyright 1990, Gaussian, Inc.),
 the Gaussian 88(TM) system (copyright 1988, Gaussian, Inc.),
 the Gaussian 86(TM) system (copyright 1986, Carnegie Mellon
 University), and the Gaussian 82(TM) system (copyright 1983,
 Carnegie Mellon University). Gaussian is a federally registered
 trademark of Gaussian, Inc.
  
 This software contains proprietary and confidential information,
 including trade secrets, belonging to Gaussian, Inc.
  
 This software is provided under written license and may be
 used, copied, transmitted, or stored only in accord with that
 written license.
  
 The following legend is applicable only to US Government
 contracts under FAR:
  
                    RESTRICTED RIGHTS LEGEND
  
 Use, reproduction and disclosure by the US Government is
 subject to restrictions as set forth in subparagraphs (a)
 and (c) of the Commercial Computer Software - Restricted
 Rights clause in FAR 52.227-19.
  
 Gaussian, Inc.
 340 Quinnipiac St., Bldg. 40, Wallingford CT 06492
  
  
 ---------------------------------------------------------------
 Warning -- This program may not be used in any manner that
 competes with the business of Gaussian, Inc. or will provide
 assistance to any competitor of Gaussian, Inc.  The licensee
 of this program is prohibited from giving any competitor of
 Gaussian, Inc. access to this program.  By using this program,
 the user acknowledges that Gaussian, Inc. is engaged in the
 business of creating and licensing software in the field of
 computational chemistry and represents and warrants to the
 licensee that it is not a competitor of Gaussian, Inc. and that
 it will not use this program in any manner prohibited above.
 ---------------------------------------------------------------
  

 Cite this work as:
 Gaussian 16, Revision A.03,
 M. J. Frisch, G. W. Trucks, H. B. Schlegel, G. E. Scuseria, 
 M. A. Robb, J. R. Cheeseman, G. Scalmani, V. Barone, 
 G. A. Petersson, H. Nakatsuji, X. Li, M. Caricato, A. V. Marenich, 
 J. Bloino, B. G. Janesko, R. Gomperts, B. Mennucci, H. P. Hratchian, 
 J. V. Ortiz, A. F. Izmaylov, J. L. Sonnenberg, D. Williams-Young, 
 F. Ding, F. Lipparini, F. Egidi, J. Goings, B. Peng, A. Petrone, 
 T. Henderson, D. Ranasinghe, V. G. Zakrzewski, J. Gao, N. Rega, 
 G. Zheng, W. Liang, M. Hada, M. Ehara, K. Toyota, R. Fukuda, 
 J. Hasegawa, M. Ishida, T. Nakajima, Y. Honda, O. Kitao, H. Nakai, 
 T. Vreven, K. Throssell, J. A. Montgomery, Jr., J. E. Peralta, 
 F. Ogliaro, M. J. Bearpark, J. J. Heyd, E. N. Brothers, K. N. Kudin, 
 V. N. Staroverov, T. A. Keith, R. Kobayashi, J. Normand, 
 K. Raghavachari, A. P. Rendell, J. C. Burant, S. S. Iyengar, 
 J. Tomasi, M. Cossi, J. M. Millam, M. Klene, C. Adamo, R. Cammi, 
 J. W. Ochterski, R. L. Martin, K. Morokuma, O. Farkas, 
 J. B. Foresman, and D. J. Fox, Gaussian, Inc., Wallingford CT, 2016.
 
 ******************************************
 Gaussian 16:  ES64L-G16RevA.03 25-Dec-2016
                 7-Nov-2022 
 ******************************************
 %nprocs=12
 Will use up to   12 processors via shared memory.
 %mem=16GB
 %oldchk=1a6k_II_Qn.chk
 %chk=1a6k_II_Q.chk
 Copying data from "1a6k_II_Qn.chk" to current chk file "1a6k_II_Q.chk"
 IOpt=  2 FromEx=T IUOpen= 4 IOptOp= 5 NList=   0 IFRang= 0 IUIn= 4 IUOut= 2.
 ----------------------------------------------------------------------
 # PBE1PBE/def2TZVP empiricaldispersion=GD3BJ scf=maxcycle=999 geom=che
 ck pop=nbo guess=read
 ----------------------------------------------------------------------
 1/29=2,38=1,172=1/1;
 2/12=2,40=1/2;
 3/5=44,7=101,11=2,14=-4,25=1,30=1,74=-13,116=-2,124=41/1,2,3;
 4/5=1/1;
 5/5=2,7=999,38=6/2;
 6/7=2,8=2,9=2,10=2,28=1,40=1/1,7;
 99/5=1,9=1/99;
 ---------
 1a6k_II_Q
 ---------
 Structure from the checkpoint file:  "1a6k_II_Q.chk"
 Charge =  0 Multiplicity = 5
 Z-Matrix found in chk file.
 C,0,9.492,29.440001,2.541
 C,0,10.712,29.318001,3.393
 N,0,11.007,30.238001,4.345
 C,0,11.762,28.437,3.339
 C,0,12.181,29.896999,4.878
 N,0,12.674,28.809,4.311
 Fe,0,14.594,27.968,4.72
 C,0,15.966,31.09,4.996
 C,0,13.915,27.936001,8.079
 C,0,13.416,24.757,4.507
 C,0,15.491,27.867001,1.465
 N,0,14.946,29.202,6.28
 C,0,15.449,30.523001,6.183
 C,0,15.363,31.157,7.454
 C,0,14.82,30.256001,8.353
 C,0,14.534,29.1,7.582
 C,0,14.555,30.398001,9.834
 C,0,15.764,32.603001,7.755
 C,0,14.507,33.476002,7.966
 C,0,13.62,33.509998,6.704
 O,0,12.466,33.068001,6.832
 O,0,14.135,33.952,5.64
 N,0,13.856,26.594999,6.046
 C,0,13.58,26.785,7.394
 C,0,12.943,25.636,7.942
 C,0,12.796,24.715,6.966
 C,0,13.334,25.334,5.735
 C,0,12.508,25.525,9.403
 C,0,12.252,23.320999,7.02
 C,0,12.407,22.542999,8.069
 N,0,14.4,26.598,3.235
 C,0,13.945,25.284,3.32
 C,0,14.146,24.589001,2.11
 C,0,14.75,25.464001,1.255
 C,0,14.944,26.698999,1.957
 C,0,13.788,23.136999,1.853
 C,0,15.347,25.237,-0.099
 C,0,15.181,24.205,-0.871
 N,0,15.52,29.250999,3.447
 C,0,15.745,29.018,2.123
 C,0,16.482,30.193001,1.605
 C,0,16.632,31.055,2.561
 C,0,16.017,30.532,3.751
 C,0,16.954,30.298,0.127
 C,0,17.452999,32.355,2.535
 C,0,18.951,32.058998,2.787
 C,0,19.837,33.250999,2.699
 O,0,20.240999,33.617001,1.585
 O,0,20.27,33.77,3.722
 O,0,16.525,27.106001,4.962
 H,0,9.70419031,29.0710251,1.55930144
 H,0,8.6969299,28.86864515,2.9726434
 H,0,9.2005601,30.46776472,2.48046469
 H,0,11.85852264,27.61061793,2.66618796
 H,0,10.44742499,31.02652513,4.60015781
 H,0,12.66363881,30.43645646,5.6660009
 H,0,17.37633133,27.54966188,4.962
 H,0,15.82293541,27.76075691,4.962
 H,0,13.31919088,22.57333311,8.62746902
 H,0,11.62091384,21.87970286,8.36396912
 H,0,11.7171759,22.94372358,6.17352116
 H,0,13.24401061,25.98321394,10.03007923
 H,0,11.56896924,26.02088759,9.53421255
 H,0,12.40648993,24.49319075,9.6675097
 H,0,13.67346492,27.94519892,9.12134169
 H,0,15.35257035,30.94823716,10.28789613
 H,0,13.63234209,30.91899322,9.98289421
 H,0,14.49245622,29.4273147,10.27982101
 H,0,13.02291944,23.76433016,4.43632991
 H,0,14.5528405,22.50482949,2.25335075
 H,0,12.85486359,22.91075917,2.32519909
 H,0,13.70385204,22.97152843,0.79922649
 H,0,15.96027735,23.47813803,-0.96742868
 H,0,14.26503471,24.0820867,-1.41025866
 H,0,15.98229778,26.01230147,-0.47343873
 H,0,15.74718928,27.85898664,0.42615313
 H,0,17.89469238,29.80015652,0.01677426
 H,0,16.22981868,29.83773794,-0.51223411
 H,0,17.06225553,31.32835166,-0.14049992
 H,0,17.34203994,32.82298204,1.57918574
 H,0,17.09142995,33.0155708,3.2951408
 H,0,19.0522952,31.63334352,3.76345151
 H,0,19.27958556,31.33914263,2.06676408
 H,0,21.21732679,33.8403419,3.86065054
 H,0,16.36675141,32.0782105,5.08396762
 H,0,16.3636287,32.62654858,8.64088427
 H,0,16.33029991,32.99104423,6.93425226
 H,0,14.81112463,34.47346653,8.20573469
 H,0,13.93901555,33.07868159,8.78112585
 H,0,15.08988726,33.98995872,5.54862466
 Recover connectivity data from disk.
 Stoichiometry    C38H40FeN6O5(5)
 Framework group  C1[X(C38H40FeN6O5)]
 Deg. of freedom   264
 Full point group                 C1      NOp   1
 Largest Abelian subgroup         C1      NOp   1
 Largest concise Abelian subgroup C1      NOp   1
                         Standard orientation:                         
 ---------------------------------------------------------------------
 Center     Atomic      Atomic             Coordinates (Angstroms)
 Number     Number       Type             X           Y           Z
 ---------------------------------------------------------------------
      1          6           0       -1.628464   -0.035347    5.376603
      2          6           0       -1.246317   -0.363958    3.971197
      3          7           0       -0.384630   -1.372420    3.687947
      4          6           0       -1.530114    0.272890    2.789900
      5          6           0       -0.188023   -1.369426    2.368862
      6          7           0       -0.866560   -0.399928    1.778997
      7         26           0       -0.752908    0.099032   -0.294427
      8          6           0        2.609922   -0.530376   -0.320170
      9          6           0       -1.399339   -3.153495   -1.159378
     10          6           0       -4.109755    0.760360   -0.488845
     11          6           0       -0.131812    3.366302    0.296355
     12          7           0        0.357060   -1.523923   -0.757296
     13          6           0        1.763245   -1.623084   -0.614916
     14          6           0        2.167268   -2.970271   -0.830887
     15          6           0        1.040221   -3.721774   -1.113479
     16          6           0       -0.041543   -2.810355   -1.005407
     17          6           0        0.908708   -5.186288   -1.462268
     18          6           0        3.600327   -3.496641   -0.723195
     19          6           0        3.766799   -4.342399    0.558866
     20          6           0        3.498716   -3.508402    1.828964
     21          8           0        2.561911   -3.891291    2.549556
     22          8           0        4.223241   -2.493865    2.025092
     23          7           0       -2.424873   -0.976527   -0.779977
     24          6           0       -2.507206   -2.337492   -1.045260
     25          6           0       -3.864746   -2.736750   -1.200029
     26          6           0       -4.656428   -1.656828   -1.028466
     27          6           0       -3.750216   -0.531330   -0.712240
     28          6           0       -4.296299   -4.172073   -1.499493
     29          6           0       -6.142090   -1.512924   -1.147596
     30          6           0       -6.850195   -2.199454   -2.017639
     31          7           0       -1.916101    1.743657   -0.045526
     32          6           0       -3.292748    1.867833   -0.219508
     33          6           0       -3.702619    3.214792   -0.147178
     34          6           0       -2.574123    3.953948    0.056811
     35          6           0       -1.459253    3.052842    0.083881
     36          6           0       -5.124967    3.717419   -0.310928
     37          6           0       -2.374798    5.437669    0.046976
     38          6           0       -3.291499    6.356809    0.105326
     39          7           0        0.922273    1.213805   -0.020313
     40          6           0        0.940878    2.547587    0.259988
     41          6           0        2.365053    2.946215    0.330286
     42          6           0        3.107949    1.901220    0.141689
     43          6           0        2.254263    0.761191   -0.056825
     44          6           0        2.810032    4.410884    0.604205
     45          6           0        4.636883    1.849962   -0.014667
     46          6           0        5.048924    2.203065   -1.464035
     47          6           0        6.518479    2.258581   -1.689718
     48          8           0        7.129012    3.301571   -1.411168
     49          8           0        7.084536    1.339938   -2.272002
     50          8           0       -0.637587    0.758156   -2.314977
     51          1           0       -1.766485    1.021518    5.470866
     52          1           0       -2.539967   -0.537648    5.625110
     53          1           0       -0.852808   -0.354411    6.041025
     54          1           0       -2.152704    1.135001    2.671386
     55          1           0        0.027266   -2.002032    4.346681
     56          1           0        0.440301   -2.064701    1.852432
     57          1           0        0.148602    0.923725   -2.840423
     58          1           0       -0.386698    0.347295   -1.484406
     59          1           0       -6.450282   -2.406860   -2.988182
     60          1           0       -7.826204   -2.550589   -1.754942
     61          1           0       -6.646479   -0.825879   -0.500711
     62          1           0       -3.607393   -4.615395   -2.187805
     63          1           0       -4.307246   -4.738027   -0.591486
     64          1           0       -5.276374   -4.167621   -1.928833
     65          1           0       -1.597399   -4.178253   -1.395055
     66          1           0        1.722895   -5.477324   -2.092583
     67          1           0        0.925886   -5.769483   -0.565335
     68          1           0       -0.015774   -5.348995   -1.975843
     69          1           0       -5.160500    0.959493   -0.523221
     70          1           0       -5.362917    3.781600   -1.352159
     71          1           0       -5.800169    3.039537    0.168111
     72          1           0       -5.214785    4.685546    0.135795
     73          1           0       -3.561369    6.899979   -0.776170
     74          1           0       -3.776465    6.570483    1.034870
     75          1           0       -1.362953    5.780033   -0.015130
     76          1           0        0.073780    4.392487    0.519009
     77          1           0        2.818135    4.958964   -0.314731
     78          1           0        2.125910    4.869694    1.287119
     79          1           0        3.792224    4.411782    1.028700
     80          1           0        5.083889    2.550382    0.659497
     81          1           0        4.982438    0.864866    0.220020
     82          1           0        4.632863    1.469395   -2.122458
     83          1           0        4.632222    3.157017   -1.711492
     84          1           0        7.573877    1.512728   -3.079645
     85          1           0        3.658740   -0.741367   -0.301077
     86          1           0        3.819598   -4.102524   -1.577435
     87          1           0        4.279191   -2.670153   -0.692197
     88          1           0        4.765215   -4.725285    0.597124
     89          1           0        3.079487   -5.161879    0.527997
     90          1           0        4.708308   -2.102074    1.295154
 ---------------------------------------------------------------------
 Rotational constants (GHZ):           0.0698492           0.0507222           0.0375474
 Standard basis: def2TZVP (5D, 7F)
 There are  2056 symmetry adapted cartesian basis functions of A   symmetry.
 There are  1804 symmetry adapted basis functions of A   symmetry.
  1804 basis functions,  2921 primitive gaussians,  2056 cartesian basis functions
   190 alpha electrons      186 beta electrons
       nuclear repulsion energy      7658.2838974337 Hartrees.
 NAtoms=   90 NActive=   90 NUniq=   90 SFac= 1.00D+00 NAtFMM=   60 NAOKFM=T Big=T
 Integral buffers will be    131072 words long.
 Raffenetti 2 integral format.
 Two-electron integral symmetry is turned on.
 Nuclear repulsion after empirical dispersion term =     7658.1562774620 Hartrees.
 One-electron integrals computed using PRISM.
   1 Symmetry operations used in ECPInt.
 ECPInt:  NShTT=  255255 NPrTT=  790653 LenC2=  187420 LenP2D=  376255.
 LDataN:  DoStor=T MaxTD1= 6 Len=  172
 NBasis=  1804 RedAO= T EigKep=  3.15D-06  NBF=  1804
 NBsUse=  1804 1.00D-06 EigRej= -1.00D+00 NBFU=  1804
 Initial guess from the checkpoint file:  "1a6k_II_Q.chk"
 B after Tr=    -0.000000   -0.000000    0.000000
         Rot=    1.000000   -0.000000   -0.000000   -0.000000 Ang=   0.00 deg.
 Initial guess <Sx>= 0.0000 <Sy>= 0.0000 <Sz>= 2.0000 <S**2>= 6.0300 S= 2.0060
 Requested convergence on RMS density matrix=1.00D-08 within 999 cycles.
 Requested convergence on MAX density matrix=1.00D-06.
 Requested convergence on             energy=1.00D-06.
 No special actions if energy rises.
 SCF Done:  E(UPBE1PBE) =  -3438.50123847     A.U. after    1 cycles
            NFock=  1  Conv=0.12D-08     -V/T= 2.0029
 <Sx>= 0.0000 <Sy>= 0.0000 <Sz>= 2.0000 <S**2>= 6.0300 S= 2.0060
 <L.S>= 0.000000000000E+00
 Annihilation of the first spin contaminant:
 S**2 before annihilation     6.0300,   after     6.0001

 **********************************************************************

            Population analysis using the SCF density.

 **********************************************************************

 Orbital symmetries:
 Alpha Orbitals:
       Occupied  (A) (A) (A) (A) (A) (A) (A) (A) (A) (A) (A) (A)
                 (A) (A) (A) (A) (A) (A) (A) (A) (A) (A) (A) (A)
                 (A) (A) (A) (A) (A) (A) (A) (A) (A) (A) (A) (A)
                 (A) (A) (A) (A) (A) (A) (A) (A) (A) (A) (A) (A)
                 (A) (A) (A) (A) (A) (A) (A) (A) (A) (A) (A) (A)
                 (A) (A) (A) (A) (A) (A) (A) (A) (A) (A) (A) (A)
                 (A) (A) (A) (A) (A) (A) (A) (A) (A) (A) (A) (A)
                 (A) (A) (A) (A) (A) (A) (A) (A) (A) (A) (A) (A)
                 (A) (A) (A) (A) (A) (A) (A) (A) (A) (A) (A) (A)
                 (A) (A) (A) (A) (A) (A) (A) (A) (A) (A) (A) (A)
                 (A) (A) (A) (A) (A) (A) (A) (A) (A) (A) (A) (A)
                 (A) (A) (A) (A) (A) (A) (A) (A) (A) (A) (A) (A)
                 (A) (A) (A) (A) (A) (A) (A) (A) (A) (A) (A) (A)
                 (A) (A) (A) (A) (A) (A) (A) (A) (A) (A) (A) (A)
                 (A) (A) (A) (A) (A) (A) (A) (A) (A) (A) (A) (A)
                 (A) (A) (A) (A) (A) (A) (A) (A) (A) (A)
       Virtual   (A) (A) (A) (A) (A) (A) (A) (A) (A) (A) (A) (A)
                 (A) (A) (A) (A) (A) (A) (A) (A) (A) (A) (A) (A)
                 (A) (A) (A) (A) (A) (A) (A) (A) (A) (A) (A) (A)
                 (A) (A) (A) (A) (A) (A) (A) (A) (A) (A) (A) (A)
                 (A) (A) (A) (A) (A) (A) (A) (A) (A) (A) (A) (A)
                 (A) (A) (A) (A) (A) (A) (A) (A) (A) (A) (A) (A)
                 (A) (A) (A) (A) (A) (A) (A) (A) (A) (A) (A) (A)
                 (A) (A) (A) (A) (A) (A) (A) (A) (A) (A) (A) (A)
                 (A) (A) (A) (A) (A) (A) (A) (A) (A) (A) (A) (A)
                 (A) (A) (A) (A) (A) (A) (A) (A) (A) (A) (A) (A)
                 (A) (A) (A) (A) (A) (A) (A) (A) (A) (A) (A) (A)
                 (A) (A) (A) (A) (A) (A) (A) (A) (A) (A) (A) (A)
                 (A) (A) (A) (A) (A) (A) (A) (A) (A) (A) (A) (A)
                 (A) (A) (A) (A) (A) (A) (A) (A) (A) (A) (A) (A)
                 (A) (A) (A) (A) (A) (A) (A) (A) (A) (A) (A) (A)
                 (A) (A) (A) (A) (A) (A) (A) (A) (A) (A) (A) (A)
                 (A) (A) (A) (A) (A) (A) (A) (A) (A) (A) (A) (A)
                 (A) (A) (A) (A) (A) (A) (A) (A) (A) (A) (A) (A)
                 (A) (A) (A) (A) (A) (A) (A) (A) (A) (A) (A) (A)
                 (A) (A) (A) (A) (A) (A) (A) (A) (A) (A) (A) (A)
                 (A) (A) (A) (A) (A) (A) (A) (A) (A) (A) (A) (A)
                 (A) (A) (A) (A) (A) (A) (A) (A) (A) (A) (A) (A)
                 (A) (A) (A) (A) (A) (A) (A) (A) (A) (A) (A) (A)
                 (A) (A) (A) (A) (A) (A) (A) (A) (A) (A) (A) (A)
                 (A) (A) (A) (A) (A) (A) (A) (A) (A) (A) (A) (A)
                 (A) (A) (A) (A) (A) (A) (A) (A) (A) (A) (A) (A)
                 (A) (A) (A) (A) (A) (A) (A) (A) (A) (A) (A) (A)
                 (A) (A) (A) (A) (A) (A) (A) (A) (A) (A) (A) (A)
                 (A) (A) (A) (A) (A) (A) (A) (A) (A) (A) (A) (A)
                 (A) (A) (A) (A) (A) (A) (A) (A) (A) (A) (A) (A)
                 (A) (A) (A) (A) (A) (A) (A) (A) (A) (A) (A) (A)
                 (A) (A) (A) (A) (A) (A) (A) (A) (A) (A) (A) (A)
                 (A) (A) (A) (A) (A) (A) (A) (A) (A) (A) (A) (A)
                 (A) (A) (A) (A) (A) (A) (A) (A) (A) (A) (A) (A)
                 (A) (A) (A) (A) (A) (A) (A) (A) (A) (A) (A) (A)
                 (A) (A) (A) (A) (A) (A) (A) (A) (A) (A) (A) (A)
                 (A) (A) (A) (A) (A) (A) (A) (A) (A) (A) (A) (A)
                 (A) (A) (A) (A) (A) (A) (A) (A) (A) (A) (A) (A)
                 (A) (A) (A) (A) (A) (A) (A) (A) (A) (A) (A) (A)
                 (A) (A) (A) (A) (A) (A) (A) (A) (A) (A) (A) (A)
                 (A) (A) (A) (A) (A) (A) (A) (A) (A) (A) (A) (A)
                 (A) (A) (A) (A) (A) (A) (A) (A) (A) (A) (A) (A)
                 (A) (A) (A) (A) (A) (A) (A) (A) (A) (A) (A) (A)
                 (A) (A) (A) (A) (A) (A) (A) (A) (A) (A) (A) (A)
                 (A) (A) (A) (A) (A) (A) (A) (A) (A) (A) (A) (A)
                 (A) (A) (A) (A) (A) (A) (A) (A) (A) (A) (A) (A)
                 (A) (A) (A) (A) (A) (A) (A) (A) (A) (A) (A) (A)
                 (A) (A) (A) (A) (A) (A) (A) (A) (A) (A) (A) (A)
                 (A) (A) (A) (A) (A) (A) (A) (A) (A) (A) (A) (A)
                 (A) (A) (A) (A) (A) (A) (A) (A) (A) (A) (A) (A)
                 (A) (A) (A) (A) (A) (A) (A) (A) (A) (A) (A) (A)
                 (A) (A) (A) (A) (A) (A) (A) (A) (A) (A) (A) (A)
                 (A) (A) (A) (A) (A) (A) (A) (A) (A) (A) (A) (A)
                 (A) (A) (A) (A) (A) (A) (A) (A) (A) (A) (A) (A)
                 (A) (A) (A) (A) (A) (A) (A) (A) (A) (A) (A) (A)
                 (A) (A) (A) (A) (A) (A) (A) (A) (A) (A) (A) (A)
                 (A) (A) (A) (A) (A) (A) (A) (A) (A) (A) (A) (A)
                 (A) (A) (A) (A) (A) (A) (A) (A) (A) (A) (A) (A)
                 (A) (A) (A) (A) (A) (A) (A) (A) (A) (A) (A) (A)
                 (A) (A) (A) (A) (A) (A) (A) (A) (A) (A) (A) (A)
                 (A) (A) (A) (A) (A) (A) (A) (A) (A) (A) (A) (A)
                 (A) (A) (A) (A) (A) (A) (A) (A) (A) (A) (A) (A)
                 (A) (A) (A) (A) (A) (A) (A) (A) (A) (A) (A) (A)
                 (A) (A) (A) (A) (A) (A) (A) (A) (A) (A) (A) (A)
                 (A) (A) (A) (A) (A) (A) (A) (A) (A) (A) (A) (A)
                 (A) (A) (A) (A) (A) (A) (A) (A) (A) (A) (A) (A)
                 (A) (A) (A) (A) (A) (A) (A) (A) (A) (A) (A) (A)
                 (A) (A) (A) (A) (A) (A) (A) (A) (A) (A) (A) (A)
                 (A) (A) (A) (A) (A) (A) (A) (A) (A) (A) (A) (A)
                 (A) (A) (A) (A) (A) (A) (A) (A) (A) (A) (A) (A)
                 (A) (A) (A) (A) (A) (A) (A) (A) (A) (A) (A) (A)
                 (A) (A) (A) (A) (A) (A) (A) (A) (A) (A) (A) (A)
                 (A) (A) (A) (A) (A) (A) (A) (A) (A) (A) (A) (A)
                 (A) (A) (A) (A) (A) (A) (A) (A) (A) (A) (A) (A)
                 (A) (A) (A) (A) (A) (A) (A) (A) (A) (A) (A) (A)
                 (A) (A) (A) (A) (A) (A) (A) (A) (A) (A) (A) (A)
                 (A) (A) (A) (A) (A) (A) (A) (A) (A) (A) (A) (A)
                 (A) (A) (A) (A) (A) (A) (A) (A) (A) (A) (A) (A)
                 (A) (A) (A) (A) (A) (A) (A) (A) (A) (A) (A) (A)
                 (A) (A) (A) (A) (A) (A) (A) (A) (A) (A) (A) (A)
                 (A) (A) (A) (A) (A) (A) (A) (A) (A) (A) (A) (A)
                 (A) (A) (A) (A) (A) (A) (A) (A) (A) (A) (A) (A)
                 (A) (A) (A) (A) (A) (A) (A) (A) (A) (A) (A) (A)
                 (A) (A) (A) (A) (A) (A) (A) (A) (A) (A) (A) (A)
                 (A) (A) (A) (A) (A) (A) (A) (A) (A) (A) (A) (A)
                 (A) (A) (A) (A) (A) (A) (A) (A) (A) (A) (A) (A)
                 (A) (A) (A) (A) (A) (A) (A) (A) (A) (A) (A) (A)
                 (A) (A) (A) (A) (A) (A) (A) (A) (A) (A) (A) (A)
                 (A) (A) (A) (A) (A) (A) (A) (A) (A) (A) (A) (A)
                 (A) (A) (A) (A) (A) (A) (A) (A) (A) (A) (A) (A)
                 (A) (A) (A) (A) (A) (A) (A) (A) (A) (A) (A) (A)
                 (A) (A) (A) (A) (A) (A) (A) (A) (A) (A) (A) (A)
                 (A) (A) (A) (A) (A) (A) (A) (A) (A) (A) (A) (A)
                 (A) (A) (A) (A) (A) (A) (A) (A) (A) (A) (A) (A)
                 (A) (A) (A) (A) (A) (A) (A) (A) (A) (A) (A) (A)
                 (A) (A) (A) (A) (A) (A) (A) (A) (A) (A) (A) (A)
                 (A) (A) (A) (A) (A) (A) (A) (A) (A) (A) (A) (A)
                 (A) (A) (A) (A) (A) (A) (A) (A) (A) (A) (A) (A)
                 (A) (A) (A) (A) (A) (A) (A) (A) (A) (A) (A) (A)
                 (A) (A) (A) (A) (A) (A) (A) (A) (A) (A) (A) (A)
                 (A) (A) (A) (A) (A) (A) (A) (A) (A) (A) (A) (A)
                 (A) (A) (A) (A) (A) (A) (A) (A) (A) (A) (A) (A)
                 (A) (A) (A) (A) (A) (A) (A) (A) (A) (A) (A) (A)
                 (A) (A) (A) (A) (A) (A) (A) (A) (A) (A) (A) (A)
                 (A) (A) (A) (A) (A) (A) (A) (A) (A) (A) (A) (A)
                 (A) (A) (A) (A) (A) (A) (A) (A) (A) (A) (A) (A)
                 (A) (A) (A) (A) (A) (A) (A) (A) (A) (A) (A) (A)
                 (A) (A) (A) (A) (A) (A) (A) (A) (A) (A) (A) (A)
                 (A) (A) (A) (A) (A) (A) (A) (A) (A) (A) (A) (A)
                 (A) (A) (A) (A) (A) (A) (A) (A) (A) (A) (A) (A)
                 (A) (A) (A) (A) (A) (A) (A) (A) (A) (A) (A) (A)
                 (A) (A) (A) (A) (A) (A) (A) (A) (A) (A) (A) (A)
                 (A) (A) (A) (A) (A) (A) (A) (A) (A) (A) (A) (A)
                 (A) (A) (A) (A) (A) (A) (A) (A) (A) (A) (A) (A)
                 (A) (A) (A) (A) (A) (A) (A) (A) (A) (A) (A) (A)
                 (A) (A) (A) (A) (A) (A) (A) (A) (A) (A) (A) (A)
                 (A) (A) (A) (A) (A) (A) (A) (A) (A) (A) (A) (A)
                 (A) (A) (A) (A) (A) (A) (A) (A) (A) (A) (A) (A)
                 (A) (A) (A) (A) (A) (A) (A) (A) (A) (A) (A) (A)
                 (A) (A) (A) (A) (A) (A) (A) (A) (A) (A) (A) (A)
                 (A) (A) (A) (A) (A) (A) (A) (A) (A) (A) (A) (A)
                 (A) (A) (A) (A) (A) (A) (A) (A) (A) (A) (A) (A)
                 (A) (A) (A) (A) (A) (A) (A) (A) (A) (A) (A) (A)
                 (A) (A) (A) (A) (A) (A) (A) (A) (A) (A) (A) (A)
                 (A) (A) (A) (A) (A) (A) (A) (A) (A) (A) (A) (A)
                 (A) (A) (A) (A) (A) (A) (A) (A) (A) (A) (A) (A)
                 (A) (A) (A) (A) (A) (A) (A) (A) (A) (A) (A) (A)
                 (A) (A) (A) (A) (A) (A) (A) (A) (A) (A) (A) (A)
                 (A) (A) (A) (A) (A) (A) (A) (A) (A) (A) (A) (A)
                 (A) (A) (A) (A) (A) (A) (A) (A) (A) (A) (A) (A)
                 (A) (A) (A) (A) (A) (A) (A) (A) (A) (A) (A) (A)
                 (A) (A) (A) (A) (A) (A) (A) (A) (A) (A) (A) (A)
                 (A) (A) (A) (A) (A) (A) (A) (A) (A) (A) (A) (A)
                 (A) (A) (A) (A) (A) (A) (A) (A) (A) (A) (A) (A)
                 (A) (A) (A) (A) (A) (A)
 Beta  Orbitals:
       Occupied  (A) (A) (A) (A) (A) (A) (A) (A) (A) (A) (A) (A)
                 (A) (A) (A) (A) (A) (A) (A) (A) (A) (A) (A) (A)
                 (A) (A) (A) (A) (A) (A) (A) (A) (A) (A) (A) (A)
                 (A) (A) (A) (A) (A) (A) (A) (A) (A) (A) (A) (A)
                 (A) (A) (A) (A) (A) (A) (A) (A) (A) (A) (A) (A)
                 (A) (A) (A) (A) (A) (A) (A) (A) (A) (A) (A) (A)
                 (A) (A) (A) (A) (A) (A) (A) (A) (A) (A) (A) (A)
                 (A) (A) (A) (A) (A) (A) (A) (A) (A) (A) (A) (A)
                 (A) (A) (A) (A) (A) (A) (A) (A) (A) (A) (A) (A)
                 (A) (A) (A) (A) (A) (A) (A) (A) (A) (A) (A) (A)
                 (A) (A) (A) (A) (A) (A) (A) (A) (A) (A) (A) (A)
                 (A) (A) (A) (A) (A) (A) (A) (A) (A) (A) (A) (A)
                 (A) (A) (A) (A) (A) (A) (A) (A) (A) (A) (A) (A)
                 (A) (A) (A) (A) (A) (A) (A) (A) (A) (A) (A) (A)
                 (A) (A) (A) (A) (A) (A) (A) (A) (A) (A) (A) (A)
                 (A) (A) (A) (A) (A) (A)
       Virtual   (A) (A) (A) (A) (A) (A) (A) (A) (A) (A) (A) (A)
                 (A) (A) (A) (A) (A) (A) (A) (A) (A) (A) (A) (A)
                 (A) (A) (A) (A) (A) (A) (A) (A) (A) (A) (A) (A)
                 (A) (A) (A) (A) (A) (A) (A) (A) (A) (A) (A) (A)
                 (A) (A) (A) (A) (A) (A) (A) (A) (A) (A) (A) (A)
                 (A) (A) (A) (A) (A) (A) (A) (A) (A) (A) (A) (A)
                 (A) (A) (A) (A) (A) (A) (A) (A) (A) (A) (A) (A)
                 (A) (A) (A) (A) (A) (A) (A) (A) (A) (A) (A) (A)
                 (A) (A) (A) (A) (A) (A) (A) (A) (A) (A) (A) (A)
                 (A) (A) (A) (A) (A) (A) (A) (A) (A) (A) (A) (A)
                 (A) (A) (A) (A) (A) (A) (A) (A) (A) (A) (A) (A)
                 (A) (A) (A) (A) (A) (A) (A) (A) (A) (A) (A) (A)
                 (A) (A) (A) (A) (A) (A) (A) (A) (A) (A) (A) (A)
                 (A) (A) (A) (A) (A) (A) (A) (A) (A) (A) (A) (A)
                 (A) (A) (A) (A) (A) (A) (A) (A) (A) (A) (A) (A)
                 (A) (A) (A) (A) (A) (A) (A) (A) (A) (A) (A) (A)
                 (A) (A) (A) (A) (A) (A) (A) (A) (A) (A) (A) (A)
                 (A) (A) (A) (A) (A) (A) (A) (A) (A) (A) (A) (A)
                 (A) (A) (A) (A) (A) (A) (A) (A) (A) (A) (A) (A)
                 (A) (A) (A) (A) (A) (A) (A) (A) (A) (A) (A) (A)
                 (A) (A) (A) (A) (A) (A) (A) (A) (A) (A) (A) (A)
                 (A) (A) (A) (A) (A) (A) (A) (A) (A) (A) (A) (A)
                 (A) (A) (A) (A) (A) (A) (A) (A) (A) (A) (A) (A)
                 (A) (A) (A) (A) (A) (A) (A) (A) (A) (A) (A) (A)
                 (A) (A) (A) (A) (A) (A) (A) (A) (A) (A) (A) (A)
                 (A) (A) (A) (A) (A) (A) (A) (A) (A) (A) (A) (A)
                 (A) (A) (A) (A) (A) (A) (A) (A) (A) (A) (A) (A)
                 (A) (A) (A) (A) (A) (A) (A) (A) (A) (A) (A) (A)
                 (A) (A) (A) (A) (A) (A) (A) (A) (A) (A) (A) (A)
                 (A) (A) (A) (A) (A) (A) (A) (A) (A) (A) (A) (A)
                 (A) (A) (A) (A) (A) (A) (A) (A) (A) (A) (A) (A)
                 (A) (A) (A) (A) (A) (A) (A) (A) (A) (A) (A) (A)
                 (A) (A) (A) (A) (A) (A) (A) (A) (A) (A) (A) (A)
                 (A) (A) (A) (A) (A) (A) (A) (A) (A) (A) (A) (A)
                 (A) (A) (A) (A) (A) (A) (A) (A) (A) (A) (A) (A)
                 (A) (A) (A) (A) (A) (A) (A) (A) (A) (A) (A) (A)
                 (A) (A) (A) (A) (A) (A) (A) (A) (A) (A) (A) (A)
                 (A) (A) (A) (A) (A) (A) (A) (A) (A) (A) (A) (A)
                 (A) (A) (A) (A) (A) (A) (A) (A) (A) (A) (A) (A)
                 (A) (A) (A) (A) (A) (A) (A) (A) (A) (A) (A) (A)
                 (A) (A) (A) (A) (A) (A) (A) (A) (A) (A) (A) (A)
                 (A) (A) (A) (A) (A) (A) (A) (A) (A) (A) (A) (A)
                 (A) (A) (A) (A) (A) (A) (A) (A) (A) (A) (A) (A)
                 (A) (A) (A) (A) (A) (A) (A) (A) (A) (A) (A) (A)
                 (A) (A) (A) (A) (A) (A) (A) (A) (A) (A) (A) (A)
                 (A) (A) (A) (A) (A) (A) (A) (A) (A) (A) (A) (A)
                 (A) (A) (A) (A) (A) (A) (A) (A) (A) (A) (A) (A)
                 (A) (A) (A) (A) (A) (A) (A) (A) (A) (A) (A) (A)
                 (A) (A) (A) (A) (A) (A) (A) (A) (A) (A) (A) (A)
                 (A) (A) (A) (A) (A) (A) (A) (A) (A) (A) (A) (A)
                 (A) (A) (A) (A) (A) (A) (A) (A) (A) (A) (A) (A)
                 (A) (A) (A) (A) (A) (A) (A) (A) (A) (A) (A) (A)
                 (A) (A) (A) (A) (A) (A) (A) (A) (A) (A) (A) (A)
                 (A) (A) (A) (A) (A) (A) (A) (A) (A) (A) (A) (A)
                 (A) (A) (A) (A) (A) (A) (A) (A) (A) (A) (A) (A)
                 (A) (A) (A) (A) (A) (A) (A) (A) (A) (A) (A) (A)
                 (A) (A) (A) (A) (A) (A) (A) (A) (A) (A) (A) (A)
                 (A) (A) (A) (A) (A) (A) (A) (A) (A) (A) (A) (A)
                 (A) (A) (A) (A) (A) (A) (A) (A) (A) (A) (A) (A)
                 (A) (A) (A) (A) (A) (A) (A) (A) (A) (A) (A) (A)
                 (A) (A) (A) (A) (A) (A) (A) (A) (A) (A) (A) (A)
                 (A) (A) (A) (A) (A) (A) (A) (A) (A) (A) (A) (A)
                 (A) (A) (A) (A) (A) (A) (A) (A) (A) (A) (A) (A)
                 (A) (A) (A) (A) (A) (A) (A) (A) (A) (A) (A) (A)
                 (A) (A) (A) (A) (A) (A) (A) (A) (A) (A) (A) (A)
                 (A) (A) (A) (A) (A) (A) (A) (A) (A) (A) (A) (A)
                 (A) (A) (A) (A) (A) (A) (A) (A) (A) (A) (A) (A)
                 (A) (A) (A) (A) (A) (A) (A) (A) (A) (A) (A) (A)
                 (A) (A) (A) (A) (A) (A) (A) (A) (A) (A) (A) (A)
                 (A) (A) (A) (A) (A) (A) (A) (A) (A) (A) (A) (A)
                 (A) (A) (A) (A) (A) (A) (A) (A) (A) (A) (A) (A)
                 (A) (A) (A) (A) (A) (A) (A) (A) (A) (A) (A) (A)
                 (A) (A) (A) (A) (A) (A) (A) (A) (A) (A) (A) (A)
                 (A) (A) (A) (A) (A) (A) (A) (A) (A) (A) (A) (A)
                 (A) (A) (A) (A) (A) (A) (A) (A) (A) (A) (A) (A)
                 (A) (A) (A) (A) (A) (A) (A) (A) (A) (A) (A) (A)
                 (A) (A) (A) (A) (A) (A) (A) (A) (A) (A) (A) (A)
                 (A) (A) (A) (A) (A) (A) (A) (A) (A) (A) (A) (A)
                 (A) (A) (A) (A) (A) (A) (A) (A) (A) (A) (A) (A)
                 (A) (A) (A) (A) (A) (A) (A) (A) (A) (A) (A) (A)
                 (A) (A) (A) (A) (A) (A) (A) (A) (A) (A) (A) (A)
                 (A) (A) (A) (A) (A) (A) (A) (A) (A) (A) (A) (A)
                 (A) (A) (A) (A) (A) (A) (A) (A) (A) (A) (A) (A)
                 (A) (A) (A) (A) (A) (A) (A) (A) (A) (A) (A) (A)
                 (A) (A) (A) (A) (A) (A) (A) (A) (A) (A) (A) (A)
                 (A) (A) (A) (A) (A) (A) (A) (A) (A) (A) (A) (A)
                 (A) (A) (A) (A) (A) (A) (A) (A) (A) (A) (A) (A)
                 (A) (A) (A) (A) (A) (A) (A) (A) (A) (A) (A) (A)
                 (A) (A) (A) (A) (A) (A) (A) (A) (A) (A) (A) (A)
                 (A) (A) (A) (A) (A) (A) (A) (A) (A) (A) (A) (A)
                 (A) (A) (A) (A) (A) (A) (A) (A) (A) (A) (A) (A)
                 (A) (A) (A) (A) (A) (A) (A) (A) (A) (A) (A) (A)
                 (A) (A) (A) (A) (A) (A) (A) (A) (A) (A) (A) (A)
                 (A) (A) (A) (A) (A) (A) (A) (A) (A) (A) (A) (A)
                 (A) (A) (A) (A) (A) (A) (A) (A) (A) (A) (A) (A)
                 (A) (A) (A) (A) (A) (A) (A) (A) (A) (A) (A) (A)
                 (A) (A) (A) (A) (A) (A) (A) (A) (A) (A) (A) (A)
                 (A) (A) (A) (A) (A) (A) (A) (A) (A) (A) (A) (A)
                 (A) (A) (A) (A) (A) (A) (A) (A) (A) (A) (A) (A)
                 (A) (A) (A) (A) (A) (A) (A) (A) (A) (A) (A) (A)
                 (A) (A) (A) (A) (A) (A) (A) (A) (A) (A) (A) (A)
                 (A) (A) (A) (A) (A) (A) (A) (A) (A) (A) (A) (A)
                 (A) (A) (A) (A) (A) (A) (A) (A) (A) (A) (A) (A)
                 (A) (A) (A) (A) (A) (A) (A) (A) (A) (A) (A) (A)
                 (A) (A) (A) (A) (A) (A) (A) (A) (A) (A) (A) (A)
                 (A) (A) (A) (A) (A) (A) (A) (A) (A) (A) (A) (A)
                 (A) (A) (A) (A) (A) (A) (A) (A) (A) (A) (A) (A)
                 (A) (A) (A) (A) (A) (A) (A) (A) (A) (A) (A) (A)
                 (A) (A) (A) (A) (A) (A) (A) (A) (A) (A) (A) (A)
                 (A) (A) (A) (A) (A) (A) (A) (A) (A) (A) (A) (A)
                 (A) (A) (A) (A) (A) (A) (A) (A) (A) (A) (A) (A)
                 (A) (A) (A) (A) (A) (A) (A) (A) (A) (A) (A) (A)
                 (A) (A) (A) (A) (A) (A) (A) (A) (A) (A) (A) (A)
                 (A) (A) (A) (A) (A) (A) (A) (A) (A) (A) (A) (A)
                 (A) (A) (A) (A) (A) (A) (A) (A) (A) (A) (A) (A)
                 (A) (A) (A) (A) (A) (A) (A) (A) (A) (A) (A) (A)
                 (A) (A) (A) (A) (A) (A) (A) (A) (A) (A) (A) (A)
                 (A) (A) (A) (A) (A) (A) (A) (A) (A) (A) (A) (A)
                 (A) (A) (A) (A) (A) (A) (A) (A) (A) (A) (A) (A)
                 (A) (A) (A) (A) (A) (A) (A) (A) (A) (A) (A) (A)
                 (A) (A) (A) (A) (A) (A) (A) (A) (A) (A) (A) (A)
                 (A) (A) (A) (A) (A) (A) (A) (A) (A) (A) (A) (A)
                 (A) (A) (A) (A) (A) (A) (A) (A) (A) (A) (A) (A)
                 (A) (A) (A) (A) (A) (A) (A) (A) (A) (A) (A) (A)
                 (A) (A) (A) (A) (A) (A) (A) (A) (A) (A) (A) (A)
                 (A) (A) (A) (A) (A) (A) (A) (A) (A) (A) (A) (A)
                 (A) (A) (A) (A) (A) (A) (A) (A) (A) (A) (A) (A)
                 (A) (A) (A) (A) (A) (A) (A) (A) (A) (A) (A) (A)
                 (A) (A) (A) (A) (A) (A) (A) (A) (A) (A) (A) (A)
                 (A) (A) (A) (A) (A) (A) (A) (A) (A) (A) (A) (A)
                 (A) (A) (A) (A) (A) (A) (A) (A) (A) (A) (A) (A)
                 (A) (A) (A) (A) (A) (A) (A) (A) (A) (A) (A) (A)
                 (A) (A) (A) (A) (A) (A) (A) (A) (A) (A) (A) (A)
                 (A) (A) (A) (A) (A) (A) (A) (A) (A) (A) (A) (A)
                 (A) (A) (A) (A) (A) (A) (A) (A) (A) (A)
 The electronic state is 5-A.
 Alpha  occ. eigenvalues -- -256.33189 -30.13812 -25.97091 -25.95718 -25.94332
 Alpha  occ. eigenvalues --  -19.28064 -19.26421 -19.18838 -19.18017 -19.17717
 Alpha  occ. eigenvalues --  -14.44388 -14.38369 -14.36829 -14.36615 -14.36315
 Alpha  occ. eigenvalues --  -14.36236 -10.36323 -10.35041 -10.27382 -10.25793
 Alpha  occ. eigenvalues --  -10.25723 -10.25327 -10.24748 -10.24720 -10.24646
 Alpha  occ. eigenvalues --  -10.24561 -10.24515 -10.24454 -10.24311 -10.23974
 Alpha  occ. eigenvalues --  -10.23942 -10.23392 -10.23326 -10.22991 -10.22896
 Alpha  occ. eigenvalues --  -10.22824 -10.22790 -10.22671 -10.22598 -10.22591
 Alpha  occ. eigenvalues --  -10.22584 -10.22466 -10.22407 -10.22268 -10.22026
 Alpha  occ. eigenvalues --  -10.21951 -10.21941 -10.21551 -10.21531 -10.21309
 Alpha  occ. eigenvalues --  -10.20689 -10.20682 -10.20550 -10.20029  -3.57034
 Alpha  occ. eigenvalues --   -2.35987  -2.33498  -2.30738  -1.18708  -1.17619
 Alpha  occ. eigenvalues --   -1.06074  -1.04244  -1.03668  -1.02995  -0.97653
 Alpha  occ. eigenvalues --   -0.96758  -0.96504  -0.95467  -0.91005  -0.84690
 Alpha  occ. eigenvalues --   -0.84422  -0.83464  -0.82873  -0.82541  -0.81355
 Alpha  occ. eigenvalues --   -0.80876  -0.80841  -0.79783  -0.79242  -0.77969
 Alpha  occ. eigenvalues --   -0.77280  -0.75622  -0.74548  -0.73276  -0.72256
 Alpha  occ. eigenvalues --   -0.72158  -0.71291  -0.70756  -0.70495  -0.69500
 Alpha  occ. eigenvalues --   -0.67730  -0.66817  -0.66221  -0.65447  -0.64673
 Alpha  occ. eigenvalues --   -0.61972  -0.61269  -0.60482  -0.59857  -0.59129
 Alpha  occ. eigenvalues --   -0.57786  -0.56877  -0.56012  -0.55262  -0.55015
 Alpha  occ. eigenvalues --   -0.54297  -0.53945  -0.52787  -0.52633  -0.52237
 Alpha  occ. eigenvalues --   -0.51991  -0.51301  -0.50726  -0.50007  -0.49629
 Alpha  occ. eigenvalues --   -0.49478  -0.49016  -0.48398  -0.47863  -0.47595
 Alpha  occ. eigenvalues --   -0.46827  -0.46465  -0.46028  -0.45831  -0.45663
 Alpha  occ. eigenvalues --   -0.45049  -0.44760  -0.44495  -0.44137  -0.44041
 Alpha  occ. eigenvalues --   -0.43923  -0.43618  -0.43468  -0.43371  -0.43123
 Alpha  occ. eigenvalues --   -0.42868  -0.42779  -0.42685  -0.42262  -0.42036
 Alpha  occ. eigenvalues --   -0.41798  -0.41645  -0.41418  -0.41035  -0.40852
 Alpha  occ. eigenvalues --   -0.40718  -0.40437  -0.39995  -0.39791  -0.39480
 Alpha  occ. eigenvalues --   -0.39202  -0.39059  -0.38697  -0.38443  -0.38273
 Alpha  occ. eigenvalues --   -0.38115  -0.37991  -0.37850  -0.37262  -0.36891
 Alpha  occ. eigenvalues --   -0.36542  -0.36317  -0.36036  -0.35769  -0.35563
 Alpha  occ. eigenvalues --   -0.34691  -0.33885  -0.33208  -0.33051  -0.32906
 Alpha  occ. eigenvalues --   -0.32305  -0.31557  -0.30663  -0.29740  -0.29333
 Alpha  occ. eigenvalues --   -0.28923  -0.28749  -0.28260  -0.27936  -0.26915
 Alpha  occ. eigenvalues --   -0.25828  -0.24550  -0.23995  -0.23751  -0.22936
 Alpha  occ. eigenvalues --   -0.22202  -0.19778  -0.19329  -0.18350  -0.17266
 Alpha virt. eigenvalues --   -0.09158  -0.07068  -0.05803  -0.02421  -0.01962
 Alpha virt. eigenvalues --   -0.00677   0.00388   0.00818   0.02589   0.03424
 Alpha virt. eigenvalues --    0.03599   0.04252   0.04313   0.04805   0.05043
 Alpha virt. eigenvalues --    0.05605   0.05841   0.06033   0.06781   0.07221
 Alpha virt. eigenvalues --    0.07405   0.07953   0.08136   0.08275   0.08760
 Alpha virt. eigenvalues --    0.09028   0.09383   0.09608   0.09819   0.09948
 Alpha virt. eigenvalues --    0.10151   0.10838   0.10977   0.11270   0.11396
 Alpha virt. eigenvalues --    0.11790   0.12063   0.12205   0.12302   0.12698
 Alpha virt. eigenvalues --    0.12792   0.12875   0.13124   0.13254   0.13644
 Alpha virt. eigenvalues --    0.13911   0.14090   0.14163   0.14445   0.14608
 Alpha virt. eigenvalues --    0.14647   0.15082   0.15107   0.15408   0.15482
 Alpha virt. eigenvalues --    0.15848   0.16173   0.16431   0.16696   0.16884
 Alpha virt. eigenvalues --    0.17123   0.17431   0.17680   0.17742   0.17974
 Alpha virt. eigenvalues --    0.18288   0.18445   0.18663   0.19094   0.19107
 Alpha virt. eigenvalues --    0.19384   0.19520   0.19735   0.20078   0.20229
 Alpha virt. eigenvalues --    0.20337   0.20495   0.21085   0.21121   0.21297
 Alpha virt. eigenvalues --    0.21650   0.21742   0.21844   0.22001   0.22444
 Alpha virt. eigenvalues --    0.22720   0.23093   0.23314   0.23603   0.23840
 Alpha virt. eigenvalues --    0.24026   0.24431   0.24517   0.24760   0.24951
 Alpha virt. eigenvalues --    0.25154   0.25404   0.25809   0.26069   0.26217
 Alpha virt. eigenvalues --    0.26330   0.26499   0.26864   0.26957   0.27215
 Alpha virt. eigenvalues --    0.27660   0.27873   0.28071   0.28219   0.28338
 Alpha virt. eigenvalues --    0.28556   0.28721   0.29152   0.29372   0.29598
 Alpha virt. eigenvalues --    0.29770   0.30076   0.30248   0.30359   0.30572
 Alpha virt. eigenvalues --    0.30831   0.31149   0.31230   0.31326   0.31935
 Alpha virt. eigenvalues --    0.32166   0.32350   0.32400   0.32813   0.33107
 Alpha virt. eigenvalues --    0.33480   0.33538   0.33848   0.34142   0.34327
 Alpha virt. eigenvalues --    0.34722   0.35002   0.35351   0.35507   0.35541
 Alpha virt. eigenvalues --    0.35876   0.36047   0.36449   0.36782   0.36878
 Alpha virt. eigenvalues --    0.37199   0.37307   0.37659   0.37723   0.37812
 Alpha virt. eigenvalues --    0.37952   0.38216   0.38340   0.38569   0.39051
 Alpha virt. eigenvalues --    0.39155   0.39417   0.39723   0.39880   0.39889
 Alpha virt. eigenvalues --    0.40217   0.40522   0.40538   0.40869   0.41021
 Alpha virt. eigenvalues --    0.41238   0.41480   0.41552   0.41683   0.41786
 Alpha virt. eigenvalues --    0.42017   0.42411   0.42652   0.42804   0.42889
 Alpha virt. eigenvalues --    0.43131   0.43396   0.43515   0.43576   0.43977
 Alpha virt. eigenvalues --    0.44088   0.44308   0.44422   0.44473   0.44685
 Alpha virt. eigenvalues --    0.45074   0.45232   0.45527   0.45805   0.45935
 Alpha virt. eigenvalues --    0.46118   0.46274   0.46427   0.46514   0.46717
 Alpha virt. eigenvalues --    0.47007   0.47056   0.47171   0.47443   0.47697
 Alpha virt. eigenvalues --    0.47924   0.48101   0.48294   0.48332   0.48725
 Alpha virt. eigenvalues --    0.48958   0.49093   0.49182   0.49336   0.49590
 Alpha virt. eigenvalues --    0.49731   0.49880   0.50240   0.50325   0.50533
 Alpha virt. eigenvalues --    0.50709   0.50941   0.51226   0.51385   0.51476
 Alpha virt. eigenvalues --    0.51784   0.52147   0.52263   0.52372   0.52405
 Alpha virt. eigenvalues --    0.52892   0.53293   0.53479   0.53526   0.53836
 Alpha virt. eigenvalues --    0.54216   0.54437   0.54609   0.54810   0.54866
 Alpha virt. eigenvalues --    0.55275   0.55576   0.55762   0.56088   0.56119
 Alpha virt. eigenvalues --    0.56210   0.56385   0.56698   0.56851   0.56953
 Alpha virt. eigenvalues --    0.57429   0.57476   0.57692   0.58014   0.58381
 Alpha virt. eigenvalues --    0.58676   0.58925   0.59012   0.59746   0.59987
 Alpha virt. eigenvalues --    0.60224   0.60302   0.60564   0.60613   0.61214
 Alpha virt. eigenvalues --    0.61331   0.61480   0.61595   0.62154   0.62433
 Alpha virt. eigenvalues --    0.62526   0.62687   0.62933   0.63272   0.63354
 Alpha virt. eigenvalues --    0.63718   0.63761   0.64153   0.64203   0.64513
 Alpha virt. eigenvalues --    0.64772   0.64872   0.65092   0.65378   0.65706
 Alpha virt. eigenvalues --    0.65965   0.66038   0.66595   0.66756   0.66882
 Alpha virt. eigenvalues --    0.67025   0.67560   0.67599   0.68491   0.68561
 Alpha virt. eigenvalues --    0.69063   0.69186   0.69290   0.69634   0.70098
 Alpha virt. eigenvalues --    0.70343   0.70481   0.70505   0.70920   0.71087
 Alpha virt. eigenvalues --    0.71316   0.71411   0.71768   0.71992   0.72401
 Alpha virt. eigenvalues --    0.72996   0.73129   0.73344   0.73665   0.74059
 Alpha virt. eigenvalues --    0.74177   0.74386   0.74921   0.75142   0.75933
 Alpha virt. eigenvalues --    0.76089   0.76353   0.76573   0.76672   0.77073
 Alpha virt. eigenvalues --    0.77688   0.78087   0.78456   0.78649   0.78878
 Alpha virt. eigenvalues --    0.79173   0.79650   0.79923   0.80166   0.80462
 Alpha virt. eigenvalues --    0.80645   0.81018   0.81489   0.81629   0.82106
 Alpha virt. eigenvalues --    0.82347   0.82747   0.82859   0.83244   0.83575
 Alpha virt. eigenvalues --    0.83681   0.84034   0.84357   0.84628   0.84955
 Alpha virt. eigenvalues --    0.85129   0.85714   0.85762   0.86081   0.86421
 Alpha virt. eigenvalues --    0.86753   0.87057   0.87482   0.87768   0.88027
 Alpha virt. eigenvalues --    0.88101   0.88752   0.89017   0.89173   0.89767
 Alpha virt. eigenvalues --    0.89901   0.90305   0.90702   0.90784   0.91110
 Alpha virt. eigenvalues --    0.91583   0.91939   0.92218   0.92550   0.92674
 Alpha virt. eigenvalues --    0.92993   0.93137   0.93562   0.93755   0.94013
 Alpha virt. eigenvalues --    0.94386   0.94588   0.94620   0.94786   0.95177
 Alpha virt. eigenvalues --    0.95303   0.96021   0.96308   0.96429   0.96766
 Alpha virt. eigenvalues --    0.97165   0.97313   0.97572   0.97698   0.98074
 Alpha virt. eigenvalues --    0.98290   0.98464   0.98922   0.99169   0.99357
 Alpha virt. eigenvalues --    0.99632   0.99888   1.00195   1.00502   1.00767
 Alpha virt. eigenvalues --    1.01169   1.01380   1.01639   1.02239   1.02439
 Alpha virt. eigenvalues --    1.02664   1.03181   1.03602   1.03946   1.04313
 Alpha virt. eigenvalues --    1.04586   1.04651   1.04798   1.05270   1.05890
 Alpha virt. eigenvalues --    1.06012   1.06598   1.07111   1.07222   1.07756
 Alpha virt. eigenvalues --    1.07769   1.08254   1.08634   1.08998   1.09086
 Alpha virt. eigenvalues --    1.09386   1.09821   1.10143   1.10444   1.10541
 Alpha virt. eigenvalues --    1.11412   1.11977   1.12093   1.12478   1.12748
 Alpha virt. eigenvalues --    1.12961   1.13449   1.13587   1.14089   1.14309
 Alpha virt. eigenvalues --    1.15173   1.15216   1.15842   1.15955   1.16561
 Alpha virt. eigenvalues --    1.16668   1.16920   1.17113   1.17716   1.18160
 Alpha virt. eigenvalues --    1.18333   1.18616   1.19386   1.19612   1.19988
 Alpha virt. eigenvalues --    1.20114   1.20209   1.20955   1.21532   1.21872
 Alpha virt. eigenvalues --    1.21906   1.22444   1.23097   1.23440   1.23878
 Alpha virt. eigenvalues --    1.23958   1.24475   1.24799   1.25062   1.25699
 Alpha virt. eigenvalues --    1.25967   1.26442   1.26639   1.26757   1.27005
 Alpha virt. eigenvalues --    1.27440   1.27560   1.28161   1.28893   1.29082
 Alpha virt. eigenvalues --    1.29308   1.29844   1.30157   1.30431   1.30856
 Alpha virt. eigenvalues --    1.31088   1.31744   1.32393   1.32716   1.33166
 Alpha virt. eigenvalues --    1.33304   1.33392   1.33692   1.34063   1.34387
 Alpha virt. eigenvalues --    1.34910   1.35507   1.35688   1.36148   1.36921
 Alpha virt. eigenvalues --    1.37440   1.37610   1.37748   1.38273   1.38535
 Alpha virt. eigenvalues --    1.38732   1.39495   1.39625   1.39920   1.40598
 Alpha virt. eigenvalues --    1.41366   1.41790   1.42167   1.42318   1.42866
 Alpha virt. eigenvalues --    1.43205   1.43319   1.43873   1.44350   1.44671
 Alpha virt. eigenvalues --    1.45248   1.45520   1.45966   1.46576   1.47092
 Alpha virt. eigenvalues --    1.47325   1.47414   1.47896   1.47962   1.48383
 Alpha virt. eigenvalues --    1.48851   1.49201   1.49426   1.49937   1.50052
 Alpha virt. eigenvalues --    1.50328   1.50824   1.51478   1.51519   1.52023
 Alpha virt. eigenvalues --    1.52331   1.52476   1.52792   1.53023   1.53276
 Alpha virt. eigenvalues --    1.53539   1.53788   1.54010   1.54210   1.54549
 Alpha virt. eigenvalues --    1.54747   1.55085   1.55375   1.55719   1.55759
 Alpha virt. eigenvalues --    1.56143   1.56400   1.56676   1.56986   1.57131
 Alpha virt. eigenvalues --    1.57526   1.58027   1.58396   1.58509   1.58917
 Alpha virt. eigenvalues --    1.59210   1.59229   1.59624   1.59951   1.60095
 Alpha virt. eigenvalues --    1.60398   1.60885   1.61128   1.61533   1.61770
 Alpha virt. eigenvalues --    1.62019   1.62139   1.62266   1.62709   1.62918
 Alpha virt. eigenvalues --    1.63192   1.63611   1.63766   1.64107   1.64440
 Alpha virt. eigenvalues --    1.64676   1.64894   1.65318   1.65589   1.65923
 Alpha virt. eigenvalues --    1.66111   1.66354   1.66679   1.67079   1.67495
 Alpha virt. eigenvalues --    1.67776   1.67895   1.68271   1.68723   1.68870
 Alpha virt. eigenvalues --    1.69010   1.69433   1.69841   1.70167   1.70864
 Alpha virt. eigenvalues --    1.71015   1.71407   1.71514   1.71809   1.72095
 Alpha virt. eigenvalues --    1.72202   1.72527   1.73087   1.73400   1.73772
 Alpha virt. eigenvalues --    1.73858   1.73985   1.74332   1.74796   1.75135
 Alpha virt. eigenvalues --    1.75295   1.75549   1.75854   1.76540   1.76584
 Alpha virt. eigenvalues --    1.77340   1.77851   1.78182   1.78393   1.78612
 Alpha virt. eigenvalues --    1.79009   1.79401   1.79868   1.80660   1.81321
 Alpha virt. eigenvalues --    1.81994   1.82181   1.82348   1.83272   1.83439
 Alpha virt. eigenvalues --    1.83764   1.84277   1.84458   1.85542   1.85672
 Alpha virt. eigenvalues --    1.85769   1.86093   1.86163   1.86870   1.87367
 Alpha virt. eigenvalues --    1.87531   1.87909   1.88374   1.88822   1.89048
 Alpha virt. eigenvalues --    1.89560   1.89868   1.89995   1.90132   1.90653
 Alpha virt. eigenvalues --    1.90866   1.91205   1.91868   1.92240   1.92389
 Alpha virt. eigenvalues --    1.92586   1.93252   1.93672   1.94075   1.94676
 Alpha virt. eigenvalues --    1.95256   1.95734   1.95904   1.96309   1.96469
 Alpha virt. eigenvalues --    1.96866   1.97158   1.97571   1.97988   1.98120
 Alpha virt. eigenvalues --    1.98659   1.99039   1.99520   1.99643   1.99966
 Alpha virt. eigenvalues --    2.00359   2.00601   2.01147   2.01230   2.01481
 Alpha virt. eigenvalues --    2.01854   2.02378   2.02808   2.03283   2.03649
 Alpha virt. eigenvalues --    2.04076   2.04762   2.05030   2.05787   2.05866
 Alpha virt. eigenvalues --    2.06100   2.06838   2.06924   2.07204   2.07471
 Alpha virt. eigenvalues --    2.08094   2.08698   2.08798   2.09387   2.09775
 Alpha virt. eigenvalues --    2.10056   2.10268   2.10975   2.11066   2.11559
 Alpha virt. eigenvalues --    2.11734   2.12205   2.12529   2.12739   2.13232
 Alpha virt. eigenvalues --    2.13911   2.14368   2.14662   2.15055   2.15113
 Alpha virt. eigenvalues --    2.15496   2.16090   2.16571   2.16714   2.17037
 Alpha virt. eigenvalues --    2.17275   2.17645   2.18263   2.18305   2.18639
 Alpha virt. eigenvalues --    2.19020   2.19522   2.19609   2.19871   2.20371
 Alpha virt. eigenvalues --    2.20912   2.21058   2.21465   2.22210   2.22927
 Alpha virt. eigenvalues --    2.23353   2.23579   2.23867   2.24224   2.24963
 Alpha virt. eigenvalues --    2.25102   2.25369   2.25682   2.26492   2.26916
 Alpha virt. eigenvalues --    2.27462   2.27545   2.27892   2.28061   2.28490
 Alpha virt. eigenvalues --    2.28733   2.28955   2.29232   2.29642   2.30169
 Alpha virt. eigenvalues --    2.30586   2.30918   2.31738   2.32148   2.32504
 Alpha virt. eigenvalues --    2.32867   2.33252   2.33705   2.34157   2.34425
 Alpha virt. eigenvalues --    2.34721   2.35144   2.35223   2.36252   2.36702
 Alpha virt. eigenvalues --    2.37048   2.37429   2.37801   2.38245   2.38471
 Alpha virt. eigenvalues --    2.38910   2.39262   2.39311   2.39433   2.40133
 Alpha virt. eigenvalues --    2.40388   2.40751   2.41341   2.41758   2.42314
 Alpha virt. eigenvalues --    2.42552   2.42762   2.42958   2.43375   2.43727
 Alpha virt. eigenvalues --    2.44404   2.44548   2.45046   2.45586   2.45818
 Alpha virt. eigenvalues --    2.46316   2.46594   2.46919   2.47407   2.47763
 Alpha virt. eigenvalues --    2.48066   2.48245   2.48962   2.49650   2.49831
 Alpha virt. eigenvalues --    2.50530   2.50871   2.51299   2.51762   2.52312
 Alpha virt. eigenvalues --    2.52494   2.53138   2.53340   2.54112   2.54238
 Alpha virt. eigenvalues --    2.54469   2.55101   2.55841   2.55845   2.56386
 Alpha virt. eigenvalues --    2.56525   2.56749   2.57278   2.57429   2.57784
 Alpha virt. eigenvalues --    2.57948   2.58298   2.58422   2.59110   2.59189
 Alpha virt. eigenvalues --    2.59435   2.59965   2.60277   2.60458   2.60816
 Alpha virt. eigenvalues --    2.60894   2.61486   2.62097   2.62334   2.62502
 Alpha virt. eigenvalues --    2.62648   2.62877   2.63314   2.63588   2.63936
 Alpha virt. eigenvalues --    2.64036   2.64768   2.64944   2.65150   2.65586
 Alpha virt. eigenvalues --    2.66217   2.66320   2.66675   2.66782   2.67108
 Alpha virt. eigenvalues --    2.67640   2.67748   2.68003   2.68613   2.68921
 Alpha virt. eigenvalues --    2.69498   2.69807   2.69967   2.70360   2.70760
 Alpha virt. eigenvalues --    2.71363   2.71377   2.72145   2.72749   2.73102
 Alpha virt. eigenvalues --    2.73273   2.73671   2.73937   2.74095   2.74248
 Alpha virt. eigenvalues --    2.74528   2.75096   2.75287   2.75460   2.76049
 Alpha virt. eigenvalues --    2.76608   2.76726   2.77480   2.77720   2.78263
 Alpha virt. eigenvalues --    2.78584   2.78832   2.79302   2.79778   2.80043
 Alpha virt. eigenvalues --    2.80420   2.80781   2.81111   2.81236   2.81932
 Alpha virt. eigenvalues --    2.82290   2.82588   2.82751   2.83200   2.83611
 Alpha virt. eigenvalues --    2.83796   2.84385   2.84545   2.85270   2.85619
 Alpha virt. eigenvalues --    2.85810   2.86315   2.86530   2.86858   2.87111
 Alpha virt. eigenvalues --    2.87399   2.87997   2.88212   2.88325   2.88919
 Alpha virt. eigenvalues --    2.89162   2.89875   2.90087   2.90469   2.90596
 Alpha virt. eigenvalues --    2.91248   2.91430   2.91613   2.91778   2.92036
 Alpha virt. eigenvalues --    2.92436   2.92514   2.92679   2.93063   2.93404
 Alpha virt. eigenvalues --    2.93782   2.94226   2.94425   2.94764   2.94900
 Alpha virt. eigenvalues --    2.95367   2.95591   2.95810   2.96376   2.96457
 Alpha virt. eigenvalues --    2.96870   2.97304   2.97480   2.97619   2.98188
 Alpha virt. eigenvalues --    2.98451   2.98902   2.99137   2.99733   2.99985
 Alpha virt. eigenvalues --    3.00637   3.00766   3.00884   3.01250   3.01518
 Alpha virt. eigenvalues --    3.01832   3.02276   3.02619   3.02714   3.03423
 Alpha virt. eigenvalues --    3.03610   3.04064   3.04654   3.04712   3.04859
 Alpha virt. eigenvalues --    3.05035   3.05312   3.05619   3.05951   3.06077
 Alpha virt. eigenvalues --    3.06745   3.07162   3.07552   3.07692   3.07812
 Alpha virt. eigenvalues --    3.08181   3.08391   3.08644   3.08796   3.09252
 Alpha virt. eigenvalues --    3.09384   3.09901   3.10285   3.10583   3.11018
 Alpha virt. eigenvalues --    3.11250   3.11623   3.11945   3.11990   3.12463
 Alpha virt. eigenvalues --    3.12737   3.12886   3.13419   3.13474   3.13770
 Alpha virt. eigenvalues --    3.13861   3.14573   3.14949   3.15075   3.15355
 Alpha virt. eigenvalues --    3.15809   3.16051   3.16408   3.16706   3.17224
 Alpha virt. eigenvalues --    3.17334   3.17698   3.17856   3.18044   3.18231
 Alpha virt. eigenvalues --    3.18938   3.19126   3.19265   3.19484   3.19899
 Alpha virt. eigenvalues --    3.20150   3.20644   3.20790   3.21106   3.21266
 Alpha virt. eigenvalues --    3.21489   3.21718   3.22065   3.22493   3.22607
 Alpha virt. eigenvalues --    3.23024   3.23070   3.23264   3.23748   3.23963
 Alpha virt. eigenvalues --    3.24400   3.24929   3.25137   3.25390   3.25585
 Alpha virt. eigenvalues --    3.26004   3.26238   3.26442   3.26634   3.26857
 Alpha virt. eigenvalues --    3.27236   3.27572   3.27871   3.28002   3.28208
 Alpha virt. eigenvalues --    3.28495   3.28895   3.29229   3.29508   3.29692
 Alpha virt. eigenvalues --    3.30072   3.30476   3.30569   3.30821   3.30929
 Alpha virt. eigenvalues --    3.31362   3.31411   3.32098   3.32234   3.32686
 Alpha virt. eigenvalues --    3.32783   3.32998   3.33462   3.33770   3.33929
 Alpha virt. eigenvalues --    3.34262   3.34528   3.34563   3.34893   3.35252
 Alpha virt. eigenvalues --    3.35472   3.35712   3.35961   3.36553   3.36768
 Alpha virt. eigenvalues --    3.37188   3.37392   3.37550   3.37836   3.38271
 Alpha virt. eigenvalues --    3.38427   3.38512   3.39008   3.39193   3.39325
 Alpha virt. eigenvalues --    3.39543   3.40150   3.40232   3.40353   3.40737
 Alpha virt. eigenvalues --    3.41075   3.41270   3.41387   3.41598   3.42262
 Alpha virt. eigenvalues --    3.42350   3.42627   3.43049   3.43361   3.43433
 Alpha virt. eigenvalues --    3.43742   3.44077   3.44499   3.44662   3.45172
 Alpha virt. eigenvalues --    3.45602   3.45975   3.46396   3.46474   3.46741
 Alpha virt. eigenvalues --    3.46976   3.47340   3.47478   3.47928   3.48472
 Alpha virt. eigenvalues --    3.48781   3.49132   3.49511   3.49686   3.50047
 Alpha virt. eigenvalues --    3.50500   3.50670   3.50972   3.51382   3.51618
 Alpha virt. eigenvalues --    3.52056   3.52440   3.52654   3.52828   3.53412
 Alpha virt. eigenvalues --    3.53506   3.54317   3.55037   3.55080   3.55661
 Alpha virt. eigenvalues --    3.55964   3.56502   3.56700   3.57142   3.57525
 Alpha virt. eigenvalues --    3.57875   3.58071   3.58478   3.58883   3.59145
 Alpha virt. eigenvalues --    3.59348   3.59406   3.59992   3.60394   3.60825
 Alpha virt. eigenvalues --    3.61190   3.61788   3.62018   3.62308   3.62895
 Alpha virt. eigenvalues --    3.63100   3.63741   3.64177   3.64395   3.65189
 Alpha virt. eigenvalues --    3.65273   3.65654   3.65985   3.66553   3.66954
 Alpha virt. eigenvalues --    3.67303   3.67480   3.68044   3.68346   3.68565
 Alpha virt. eigenvalues --    3.69141   3.69678   3.70004   3.70721   3.70839
 Alpha virt. eigenvalues --    3.71488   3.71918   3.72126   3.72531   3.72616
 Alpha virt. eigenvalues --    3.73267   3.73479   3.74106   3.74493   3.74657
 Alpha virt. eigenvalues --    3.74951   3.75074   3.75486   3.75708   3.76091
 Alpha virt. eigenvalues --    3.76687   3.77000   3.77463   3.77961   3.78090
 Alpha virt. eigenvalues --    3.78562   3.78982   3.79128   3.79515   3.80314
 Alpha virt. eigenvalues --    3.80851   3.81007   3.81278   3.82283   3.83045
 Alpha virt. eigenvalues --    3.83206   3.84256   3.84343   3.84810   3.84997
 Alpha virt. eigenvalues --    3.85433   3.85908   3.86482   3.87056   3.87608
 Alpha virt. eigenvalues --    3.87702   3.88431   3.89236   3.89701   3.90098
 Alpha virt. eigenvalues --    3.90881   3.91525   3.91937   3.92586   3.93131
 Alpha virt. eigenvalues --    3.93760   3.93849   3.94546   3.94825   3.95008
 Alpha virt. eigenvalues --    3.95348   3.96548   3.96638   3.96859   3.97461
 Alpha virt. eigenvalues --    3.97669   3.98675   3.98870   3.99829   4.00186
 Alpha virt. eigenvalues --    4.00433   4.01165   4.01605   4.01920   4.03081
 Alpha virt. eigenvalues --    4.03537   4.03901   4.04167   4.04871   4.05447
 Alpha virt. eigenvalues --    4.05807   4.07203   4.07444   4.07625   4.09062
 Alpha virt. eigenvalues --    4.09487   4.10061   4.10484   4.11134   4.11319
 Alpha virt. eigenvalues --    4.12382   4.12541   4.12925   4.13468   4.15010
 Alpha virt. eigenvalues --    4.15055   4.15486   4.15739   4.16078   4.16361
 Alpha virt. eigenvalues --    4.17492   4.17819   4.17980   4.18350   4.19370
 Alpha virt. eigenvalues --    4.19696   4.20717   4.21210   4.21344   4.21695
 Alpha virt. eigenvalues --    4.21975   4.22729   4.23147   4.23297   4.24197
 Alpha virt. eigenvalues --    4.24615   4.24912   4.25278   4.25761   4.26523
 Alpha virt. eigenvalues --    4.26970   4.27330   4.28171   4.28450   4.29278
 Alpha virt. eigenvalues --    4.30326   4.30735   4.31021   4.31707   4.32366
 Alpha virt. eigenvalues --    4.32702   4.33179   4.34094   4.34820   4.35314
 Alpha virt. eigenvalues --    4.35330   4.35724   4.36409   4.37110   4.37658
 Alpha virt. eigenvalues --    4.38383   4.39396   4.39867   4.40235   4.40625
 Alpha virt. eigenvalues --    4.40816   4.41077   4.42445   4.42492   4.43415
 Alpha virt. eigenvalues --    4.43788   4.43876   4.45131   4.45570   4.45923
 Alpha virt. eigenvalues --    4.46600   4.47139   4.47461   4.48084   4.48331
 Alpha virt. eigenvalues --    4.48932   4.49401   4.50067   4.51257   4.51449
 Alpha virt. eigenvalues --    4.52750   4.53376   4.53720   4.54086   4.54372
 Alpha virt. eigenvalues --    4.55136   4.56800   4.58424   4.59038   4.59510
 Alpha virt. eigenvalues --    4.60019   4.60390   4.61502   4.61801   4.62025
 Alpha virt. eigenvalues --    4.63032   4.63195   4.63792   4.64090   4.65753
 Alpha virt. eigenvalues --    4.65997   4.66212   4.67329   4.67642   4.68289
 Alpha virt. eigenvalues --    4.69575   4.70206   4.70641   4.71491   4.71875
 Alpha virt. eigenvalues --    4.72391   4.73235   4.74002   4.74491   4.74913
 Alpha virt. eigenvalues --    4.75726   4.76789   4.76924   4.77795   4.77865
 Alpha virt. eigenvalues --    4.78229   4.79110   4.79235   4.80148   4.80882
 Alpha virt. eigenvalues --    4.81854   4.82951   4.83466   4.84348   4.84651
 Alpha virt. eigenvalues --    4.85638   4.86408   4.87197   4.87308   4.88622
 Alpha virt. eigenvalues --    4.88809   4.89551   4.89889   4.90560   4.91353
 Alpha virt. eigenvalues --    4.91677   4.92161   4.92938   4.93307   4.94601
 Alpha virt. eigenvalues --    4.95325   4.95947   4.96846   4.97629   4.98185
 Alpha virt. eigenvalues --    4.98652   5.00051   5.00850   5.01332   5.01416
 Alpha virt. eigenvalues --    5.02523   5.04224   5.04366   5.05772   5.06038
 Alpha virt. eigenvalues --    5.06992   5.08002   5.09187   5.10016   5.10702
 Alpha virt. eigenvalues --    5.11096   5.12615   5.14156   5.15485   5.15894
 Alpha virt. eigenvalues --    5.17299   5.17409   5.17573   5.18419   5.18629
 Alpha virt. eigenvalues --    5.19578   5.20396   5.20932   5.21435   5.22087
 Alpha virt. eigenvalues --    5.22916   5.23194   5.24073   5.24386   5.25786
 Alpha virt. eigenvalues --    5.26487   5.27026   5.27691   5.28655   5.29084
 Alpha virt. eigenvalues --    5.30026   5.30768   5.31316   5.31964   5.32935
 Alpha virt. eigenvalues --    5.35076   5.36295   5.36953   5.37345   5.37707
 Alpha virt. eigenvalues --    5.38377   5.40018   5.40087   5.40462   5.41495
 Alpha virt. eigenvalues --    5.43748   5.45256   5.45383   5.46402   5.48045
 Alpha virt. eigenvalues --    5.48543   5.49204   5.49900   5.50297   5.51636
 Alpha virt. eigenvalues --    5.55215   5.56542   5.57037   5.57764   5.58375
 Alpha virt. eigenvalues --    5.58933   5.60312   5.60820   5.61258   5.61387
 Alpha virt. eigenvalues --    5.62373   5.63555   5.63800   5.64461   5.66062
 Alpha virt. eigenvalues --    5.67542   5.70179   5.72126   5.73381   5.75515
 Alpha virt. eigenvalues --    5.77385   5.77891   5.80556   5.83088   5.83680
 Alpha virt. eigenvalues --    5.84433   5.85089   5.89329   5.91263   5.92409
 Alpha virt. eigenvalues --    5.93308   5.94349   5.95249   5.96012   5.96476
 Alpha virt. eigenvalues --    6.00882   6.01816   6.04429   6.08218   6.09577
 Alpha virt. eigenvalues --    6.09709   6.10201   6.11305   6.12967   6.13915
 Alpha virt. eigenvalues --    6.16622   6.20953   6.24589   6.24867   6.25468
 Alpha virt. eigenvalues --    6.26013   6.29669   6.32170   6.32761   6.36336
 Alpha virt. eigenvalues --    6.37458   6.38046   6.43502   6.44934   6.47700
 Alpha virt. eigenvalues --    6.50166   6.52791   6.53193   6.54152   6.56324
 Alpha virt. eigenvalues --    6.61855   6.65230   6.71316   6.76230   6.78922
 Alpha virt. eigenvalues --    6.83722   6.84929   6.88825   6.91667   6.96452
 Alpha virt. eigenvalues --    6.96495   7.03261   7.12005   7.12985   7.14761
 Alpha virt. eigenvalues --    7.16278   7.18569   7.30252   7.31171   7.33986
 Alpha virt. eigenvalues --   22.35753  22.41003  22.51088  22.52518  22.54118
 Alpha virt. eigenvalues --   22.58353  22.61199  22.61313  22.62226  22.70104
 Alpha virt. eigenvalues --   22.73083  22.77150  22.87135  22.89030  22.90650
 Alpha virt. eigenvalues --   22.91628  22.96679  23.00295  23.02539  23.06862
 Alpha virt. eigenvalues --   23.07728  23.11412  23.19146  23.26732  23.30776
 Alpha virt. eigenvalues --   23.33256  23.33897  23.39943  23.43123  23.46990
 Alpha virt. eigenvalues --   23.52301  23.56833  23.60852  23.68794  23.74147
 Alpha virt. eigenvalues --   23.78684  23.83742  23.91118  32.48315  32.71664
 Alpha virt. eigenvalues --   32.92020  32.97325  33.00210  33.20774  43.93638
 Alpha virt. eigenvalues --   43.97493  43.98108  44.09796  44.20424
  Beta  occ. eigenvalues -- -256.33069 -30.05819 -25.89443 -25.89094 -25.88465
  Beta  occ. eigenvalues --  -19.28064 -19.26421 -19.18838 -19.17717 -19.17680
  Beta  occ. eigenvalues --  -14.44382 -14.38181 -14.36652 -14.36429 -14.36145
  Beta  occ. eigenvalues --  -14.36052 -10.36323 -10.35041 -10.27382 -10.25785
  Beta  occ. eigenvalues --  -10.25694 -10.25301 -10.24718 -10.24716 -10.24619
  Beta  occ. eigenvalues --  -10.24577 -10.24521 -10.24472 -10.24311 -10.23972
  Beta  occ. eigenvalues --  -10.23944 -10.23393 -10.23322 -10.22996 -10.22886
  Beta  occ. eigenvalues --  -10.22819 -10.22763 -10.22669 -10.22586 -10.22583
  Beta  occ. eigenvalues --  -10.22565 -10.22442 -10.22409 -10.22272 -10.22027
  Beta  occ. eigenvalues --  -10.21958 -10.21941 -10.21564 -10.21531 -10.21300
  Beta  occ. eigenvalues --  -10.20688 -10.20683 -10.20548 -10.20051  -3.37642
  Beta  occ. eigenvalues --   -2.14082  -2.11953  -2.11739  -1.18709  -1.17619
  Beta  occ. eigenvalues --   -1.06002  -1.04244  -1.02995  -1.02721  -0.97468
  Beta  occ. eigenvalues --   -0.96586  -0.96331  -0.95291  -0.90832  -0.84661
  Beta  occ. eigenvalues --   -0.84390  -0.83427  -0.82807  -0.82480  -0.81325
  Beta  occ. eigenvalues --   -0.80839  -0.80816  -0.79715  -0.79182  -0.77929
  Beta  occ. eigenvalues --   -0.77234  -0.75598  -0.74518  -0.73260  -0.72206
  Beta  occ. eigenvalues --   -0.72117  -0.71232  -0.70709  -0.70472  -0.69443
  Beta  occ. eigenvalues --   -0.67684  -0.66788  -0.66185  -0.65415  -0.64519
  Beta  occ. eigenvalues --   -0.61929  -0.61225  -0.60424  -0.59793  -0.57644
  Beta  occ. eigenvalues --   -0.57290  -0.56810  -0.55947  -0.55193  -0.54946
  Beta  occ. eigenvalues --   -0.54088  -0.53745  -0.52723  -0.52585  -0.52127
  Beta  occ. eigenvalues --   -0.51952  -0.51239  -0.50595  -0.49858  -0.49576
  Beta  occ. eigenvalues --   -0.49215  -0.48938  -0.48377  -0.47811  -0.47512
  Beta  occ. eigenvalues --   -0.46484  -0.46362  -0.45834  -0.45760  -0.45512
  Beta  occ. eigenvalues --   -0.44921  -0.44671  -0.44395  -0.44021  -0.43912
  Beta  occ. eigenvalues --   -0.43834  -0.43561  -0.43310  -0.43235  -0.43008
  Beta  occ. eigenvalues --   -0.42749  -0.42676  -0.42548  -0.42169  -0.41985
  Beta  occ. eigenvalues --   -0.41606  -0.41549  -0.41079  -0.40684  -0.40614
  Beta  occ. eigenvalues --   -0.40362  -0.39918  -0.39671  -0.39413  -0.39007
  Beta  occ. eigenvalues --   -0.38800  -0.38630  -0.38180  -0.38168  -0.37913
  Beta  occ. eigenvalues --   -0.37811  -0.37220  -0.36889  -0.36610  -0.36153
  Beta  occ. eigenvalues --   -0.36037  -0.35556  -0.34570  -0.33904  -0.33252
  Beta  occ. eigenvalues --   -0.33176  -0.33048  -0.32783  -0.31873  -0.31477
  Beta  occ. eigenvalues --   -0.30428  -0.29407  -0.28956  -0.28851  -0.28299
  Beta  occ. eigenvalues --   -0.27933  -0.27139  -0.25873  -0.25324  -0.24198
  Beta  occ. eigenvalues --   -0.23746  -0.22535  -0.19900  -0.19289  -0.18542
  Beta  occ. eigenvalues --   -0.17357
  Beta virt. eigenvalues --   -0.09482  -0.07017  -0.05826  -0.02748  -0.02003
  Beta virt. eigenvalues --   -0.00951  -0.00797  -0.00512   0.00389   0.00903
  Beta virt. eigenvalues --    0.02205   0.03001   0.03596   0.03815   0.04299
  Beta virt. eigenvalues --    0.04671   0.04896   0.05328   0.05695   0.05899
  Beta virt. eigenvalues --    0.06404   0.06816   0.07251   0.07479   0.07777
  Beta virt. eigenvalues --    0.08082   0.08281   0.08493   0.08865   0.09098
  Beta virt. eigenvalues --    0.09425   0.09644   0.09845   0.10033   0.10272
  Beta virt. eigenvalues --    0.10858   0.11033   0.11324   0.11426   0.11840
  Beta virt. eigenvalues --    0.12164   0.12263   0.12346   0.12741   0.12850
  Beta virt. eigenvalues --    0.12919   0.13213   0.13307   0.13693   0.13973
  Beta virt. eigenvalues --    0.14137   0.14204   0.14505   0.14642   0.14728
  Beta virt. eigenvalues --    0.15102   0.15191   0.15443   0.15520   0.15914
  Beta virt. eigenvalues --    0.16240   0.16475   0.16738   0.16904   0.17147
  Beta virt. eigenvalues --    0.17454   0.17712   0.17764   0.17985   0.18327
  Beta virt. eigenvalues --    0.18482   0.18694   0.19129   0.19199   0.19442
  Beta virt. eigenvalues --    0.19539   0.19786   0.20133   0.20263   0.20371
  Beta virt. eigenvalues --    0.20678   0.21137   0.21254   0.21322   0.21696
  Beta virt. eigenvalues --    0.21799   0.21906   0.22044   0.22590   0.22757
  Beta virt. eigenvalues --    0.23133   0.23518   0.23732   0.23959   0.24224
  Beta virt. eigenvalues --    0.24540   0.24652   0.24982   0.25023   0.25328
  Beta virt. eigenvalues --    0.25541   0.25855   0.26269   0.26419   0.26720
  Beta virt. eigenvalues --    0.26880   0.27137   0.27235   0.27493   0.27743
  Beta virt. eigenvalues --    0.27928   0.28142   0.28366   0.28573   0.28755
  Beta virt. eigenvalues --    0.28928   0.29309   0.29547   0.29723   0.29915
  Beta virt. eigenvalues --    0.30159   0.30303   0.30500   0.30673   0.31111
  Beta virt. eigenvalues --    0.31305   0.31347   0.31463   0.32023   0.32204
  Beta virt. eigenvalues --    0.32474   0.32562   0.32839   0.33188   0.33628
  Beta virt. eigenvalues --    0.33714   0.34007   0.34287   0.34470   0.34964
  Beta virt. eigenvalues --    0.35232   0.35476   0.35563   0.35826   0.36076
  Beta virt. eigenvalues --    0.36157   0.36522   0.36965   0.37031   0.37271
  Beta virt. eigenvalues --    0.37385   0.37734   0.37880   0.37942   0.38132
  Beta virt. eigenvalues --    0.38328   0.38539   0.38612   0.39211   0.39317
  Beta virt. eigenvalues --    0.39490   0.39748   0.39926   0.40189   0.40349
  Beta virt. eigenvalues --    0.40577   0.40694   0.40969   0.41062   0.41383
  Beta virt. eigenvalues --    0.41504   0.41580   0.41751   0.41895   0.42061
  Beta virt. eigenvalues --    0.42540   0.42678   0.42880   0.42971   0.43174
  Beta virt. eigenvalues --    0.43467   0.43630   0.43676   0.44112   0.44163
  Beta virt. eigenvalues --    0.44363   0.44544   0.44615   0.44727   0.45158
  Beta virt. eigenvalues --    0.45326   0.45555   0.45850   0.45963   0.46165
  Beta virt. eigenvalues --    0.46454   0.46496   0.46561   0.46791   0.47052
  Beta virt. eigenvalues --    0.47150   0.47263   0.47602   0.47736   0.47983
  Beta virt. eigenvalues --    0.48180   0.48353   0.48394   0.48780   0.49051
  Beta virt. eigenvalues --    0.49124   0.49292   0.49437   0.49658   0.49785
  Beta virt. eigenvalues --    0.49951   0.50316   0.50397   0.50595   0.50848
  Beta virt. eigenvalues --    0.51047   0.51354   0.51440   0.51553   0.51878
  Beta virt. eigenvalues --    0.52278   0.52366   0.52410   0.52611   0.52935
  Beta virt. eigenvalues --    0.53336   0.53557   0.53648   0.53874   0.54316
  Beta virt. eigenvalues --    0.54498   0.54662   0.54892   0.54982   0.55357
  Beta virt. eigenvalues --    0.55649   0.55816   0.56146   0.56240   0.56299
  Beta virt. eigenvalues --    0.56523   0.56801   0.56988   0.57276   0.57560
  Beta virt. eigenvalues --    0.57631   0.57816   0.58074   0.58539   0.58757
  Beta virt. eigenvalues --    0.58969   0.59105   0.59826   0.60093   0.60322
  Beta virt. eigenvalues --    0.60439   0.60614   0.60753   0.61314   0.61450
  Beta virt. eigenvalues --    0.61583   0.61677   0.62212   0.62569   0.62570
  Beta virt. eigenvalues --    0.62809   0.63079   0.63355   0.63452   0.63786
  Beta virt. eigenvalues --    0.63964   0.64206   0.64305   0.64563   0.64872
  Beta virt. eigenvalues --    0.65055   0.65206   0.65443   0.65796   0.65995
  Beta virt. eigenvalues --    0.66132   0.66658   0.66799   0.67021   0.67104
  Beta virt. eigenvalues --    0.67647   0.67892   0.68570   0.68669   0.69190
  Beta virt. eigenvalues --    0.69364   0.69466   0.69795   0.70138   0.70443
  Beta virt. eigenvalues --    0.70513   0.70631   0.71000   0.71161   0.71447
  Beta virt. eigenvalues --    0.71488   0.71942   0.72097   0.72462   0.73175
  Beta virt. eigenvalues --    0.73248   0.73495   0.73743   0.74176   0.74210
  Beta virt. eigenvalues --    0.74571   0.75090   0.75252   0.76009   0.76197
  Beta virt. eigenvalues --    0.76517   0.76652   0.76775   0.77187   0.77727
  Beta virt. eigenvalues --    0.78184   0.78511   0.78740   0.78979   0.79248
  Beta virt. eigenvalues --    0.79731   0.79967   0.80374   0.80544   0.80731
  Beta virt. eigenvalues --    0.81077   0.81593   0.81710   0.82142   0.82474
  Beta virt. eigenvalues --    0.82814   0.82965   0.83276   0.83677   0.83744
  Beta virt. eigenvalues --    0.84120   0.84406   0.84681   0.85035   0.85215
  Beta virt. eigenvalues --    0.85779   0.85839   0.86138   0.86490   0.86811
  Beta virt. eigenvalues --    0.87119   0.87563   0.87847   0.88148   0.88255
  Beta virt. eigenvalues --    0.88874   0.89078   0.89297   0.89834   0.89979
  Beta virt. eigenvalues --    0.90628   0.90774   0.90854   0.91380   0.91685
  Beta virt. eigenvalues --    0.91998   0.92353   0.92652   0.92869   0.93027
  Beta virt. eigenvalues --    0.93295   0.93663   0.93822   0.94095   0.94526
  Beta virt. eigenvalues --    0.94637   0.94686   0.94910   0.95198   0.95488
  Beta virt. eigenvalues --    0.96074   0.96395   0.96496   0.96893   0.97243
  Beta virt. eigenvalues --    0.97422   0.97716   0.97806   0.98212   0.98387
  Beta virt. eigenvalues --    0.98578   0.99030   0.99305   0.99427   0.99718
  Beta virt. eigenvalues --    0.99951   1.00341   1.00663   1.00856   1.01403
  Beta virt. eigenvalues --    1.01533   1.01706   1.02283   1.02581   1.02887
  Beta virt. eigenvalues --    1.03325   1.03708   1.04045   1.04508   1.04665
  Beta virt. eigenvalues --    1.04775   1.05310   1.05511   1.06133   1.06336
  Beta virt. eigenvalues --    1.06713   1.07199   1.07400   1.07900   1.08112
  Beta virt. eigenvalues --    1.08488   1.08785   1.09123   1.09332   1.09600
  Beta virt. eigenvalues --    1.09953   1.10258   1.10577   1.10648   1.11530
  Beta virt. eigenvalues --    1.12063   1.12319   1.12546   1.12839   1.13243
  Beta virt. eigenvalues --    1.13537   1.13922   1.14338   1.14431   1.15270
  Beta virt. eigenvalues --    1.15505   1.16070   1.16307   1.16635   1.16834
  Beta virt. eigenvalues --    1.17196   1.17364   1.17801   1.18253   1.18450
  Beta virt. eigenvalues --    1.18854   1.19604   1.19684   1.20075   1.20290
  Beta virt. eigenvalues --    1.20351   1.21153   1.21704   1.21997   1.22167
  Beta virt. eigenvalues --    1.22576   1.23234   1.23686   1.24024   1.24293
  Beta virt. eigenvalues --    1.24624   1.25023   1.25337   1.25847   1.26255
  Beta virt. eigenvalues --    1.26526   1.26879   1.27040   1.27303   1.27613
  Beta virt. eigenvalues --    1.27675   1.28417   1.29086   1.29311   1.29419
  Beta virt. eigenvalues --    1.30051   1.30343   1.30522   1.31017   1.31252
  Beta virt. eigenvalues --    1.31946   1.32674   1.32881   1.33304   1.33415
  Beta virt. eigenvalues --    1.33698   1.33926   1.34364   1.34630   1.35150
  Beta virt. eigenvalues --    1.35607   1.35770   1.36360   1.37101   1.37557
  Beta virt. eigenvalues --    1.37738   1.37939   1.38391   1.38637   1.38954
  Beta virt. eigenvalues --    1.39675   1.39807   1.40041   1.40785   1.41463
  Beta virt. eigenvalues --    1.41941   1.42199   1.42524   1.42927   1.43248
  Beta virt. eigenvalues --    1.43387   1.44005   1.44509   1.44819   1.45460
  Beta virt. eigenvalues --    1.45678   1.46081   1.46670   1.47135   1.47406
  Beta virt. eigenvalues --    1.47515   1.47983   1.48016   1.48489   1.48917
  Beta virt. eigenvalues --    1.49461   1.49585   1.50175   1.50186   1.50550
  Beta virt. eigenvalues --    1.51102   1.51626   1.51693   1.52100   1.52409
  Beta virt. eigenvalues --    1.52737   1.52920   1.53180   1.53433   1.53722
  Beta virt. eigenvalues --    1.53991   1.54134   1.54296   1.54584   1.54860
  Beta virt. eigenvalues --    1.55233   1.55440   1.55766   1.55849   1.56170
  Beta virt. eigenvalues --    1.56429   1.56807   1.57117   1.57192   1.57607
  Beta virt. eigenvalues --    1.58222   1.58464   1.58591   1.59012   1.59271
  Beta virt. eigenvalues --    1.59301   1.59683   1.60011   1.60148   1.60528
  Beta virt. eigenvalues --    1.60927   1.61229   1.61560   1.61821   1.62099
  Beta virt. eigenvalues --    1.62174   1.62314   1.62759   1.63009   1.63258
  Beta virt. eigenvalues --    1.63669   1.63853   1.64174   1.64496   1.64740
  Beta virt. eigenvalues --    1.65031   1.65396   1.65649   1.65971   1.66154
  Beta virt. eigenvalues --    1.66440   1.66748   1.67133   1.67550   1.67811
  Beta virt. eigenvalues --    1.68015   1.68300   1.68776   1.68961   1.69060
  Beta virt. eigenvalues --    1.69496   1.69934   1.70216   1.70926   1.71088
  Beta virt. eigenvalues --    1.71447   1.71575   1.71848   1.72179   1.72250
  Beta virt. eigenvalues --    1.72566   1.73126   1.73475   1.73854   1.73924
  Beta virt. eigenvalues --    1.74049   1.74381   1.74866   1.75239   1.75345
  Beta virt. eigenvalues --    1.75619   1.75931   1.76631   1.76718   1.77419
  Beta virt. eigenvalues --    1.77950   1.78254   1.78443   1.78703   1.79069
  Beta virt. eigenvalues --    1.79540   1.80040   1.80727   1.81432   1.82079
  Beta virt. eigenvalues --    1.82309   1.82463   1.83407   1.83621   1.83827
  Beta virt. eigenvalues --    1.84346   1.84534   1.85589   1.85731   1.85866
  Beta virt. eigenvalues --    1.86192   1.86395   1.86944   1.87453   1.87614
  Beta virt. eigenvalues --    1.88068   1.88511   1.89077   1.89135   1.89646
  Beta virt. eigenvalues --    1.89957   1.90174   1.90196   1.90754   1.90938
  Beta virt. eigenvalues --    1.91271   1.91960   1.92295   1.92474   1.92667
  Beta virt. eigenvalues --    1.93313   1.93732   1.94118   1.94780   1.95387
  Beta virt. eigenvalues --    1.95916   1.96003   1.96477   1.96553   1.97048
  Beta virt. eigenvalues --    1.97326   1.97679   1.98074   1.98255   1.98812
  Beta virt. eigenvalues --    1.99228   1.99668   1.99714   2.00088   2.00534
  Beta virt. eigenvalues --    2.00718   2.01237   2.01449   2.01633   2.01987
  Beta virt. eigenvalues --    2.02476   2.02913   2.03456   2.03816   2.04138
  Beta virt. eigenvalues --    2.04914   2.05105   2.05911   2.06098   2.06155
  Beta virt. eigenvalues --    2.06996   2.07091   2.07282   2.07661   2.08219
  Beta virt. eigenvalues --    2.08773   2.08918   2.09481   2.09884   2.10149
  Beta virt. eigenvalues --    2.10404   2.11150   2.11177   2.11656   2.12019
  Beta virt. eigenvalues --    2.12313   2.12697   2.12854   2.13270   2.14086
  Beta virt. eigenvalues --    2.14616   2.14697   2.15131   2.15334   2.15564
  Beta virt. eigenvalues --    2.16181   2.16616   2.16819   2.17199   2.17309
  Beta virt. eigenvalues --    2.17792   2.18340   2.18440   2.18688   2.19098
  Beta virt. eigenvalues --    2.19592   2.19735   2.20028   2.20467   2.21051
  Beta virt. eigenvalues --    2.21185   2.21553   2.22289   2.23067   2.23468
  Beta virt. eigenvalues --    2.23840   2.24057   2.24419   2.25031   2.25251
[...]
  1646. RY*(   1) H  81                  0.00032     1.69243   
  1647. RY*(   2) H  81                  0.00009     2.68476   
  1648. RY*(   3) H  81                  0.00006     1.47539   
  1649. RY*(   4) H  81                  0.00006     2.41758   
  1650. RY*(   5) H  81                  0.00000     2.97351   
  1651. RY*(   1) H  82                  0.00039     1.24997   
  1652. RY*(   2) H  82                  0.00006     1.55827   
  1653. RY*(   3) H  82                  0.00006     2.48310   
  1654. RY*(   4) H  82                  0.00003     2.41594   
  1655. RY*(   5) H  82                  0.00001     3.00970   
  1656. RY*(   1) H  83                  0.00030     1.34988   
  1657. RY*(   2) H  83                  0.00007     2.26601   
  1658. RY*(   3) H  83                  0.00005     1.59576   
  1659. RY*(   4) H  83                  0.00002     2.43432   
  1660. RY*(   5) H  83                  0.00001     3.03757   
  1661. RY*(   1) H  84                  0.00062     0.92178   
  1662. RY*(   2) H  84                  0.00035     2.01516   
  1663. RY*(   3) H  84                  0.00022     1.83388   
  1664. RY*(   4) H  84                  0.00011     2.15462   
  1665. RY*(   5) H  84                  0.00000     3.20122   
  1666. RY*(   1) H  85                  0.00148     0.69990   
  1667. RY*(   2) H  85                  0.00015     2.23881   
  1668. RY*(   3) H  85                  0.00011     2.24334   
  1669. RY*(   4) H  85                  0.00006     3.06971   
  1670. RY*(   5) H  85                  0.00000     3.23955   
  1671. RY*(   1) H  86                  0.00054     1.03114   
  1672. RY*(   2) H  86                  0.00009     2.19645   
  1673. RY*(   3) H  86                  0.00005     2.58450   
  1674. RY*(   4) H  86                  0.00005     2.05406   
  1675. RY*(   5) H  86                  0.00001     3.01016   
  1676. RY*(   1) H  87                  0.00047     1.40463   
  1677. RY*(   2) H  87                  0.00010     1.91505   
  1678. RY*(   3) H  87                  0.00008     2.34159   
  1679. RY*(   4) H  87                  0.00003     2.40550   
  1680. RY*(   5) H  87                  0.00001     3.02979   
  1681. RY*(   1) H  88                  0.00034     1.05225   
  1682. RY*(   2) H  88                  0.00007     1.76788   
  1683. RY*(   3) H  88                  0.00007     2.38217   
  1684. RY*(   4) H  88                  0.00003     2.42842   
  1685. RY*(   5) H  88                  0.00001     2.84983   
  1686. RY*(   1) H  89                  0.00036     1.13744   
  1687. RY*(   2) H  89                  0.00007     2.06112   
  1688. RY*(   3) H  89                  0.00005     2.23334   
  1689. RY*(   4) H  89                  0.00004     2.11276   
  1690. RY*(   5) H  89                  0.00001     3.11999   
  1691. RY*(   1) H  90                  0.00049     1.58448   
  1692. RY*(   2) H  90                  0.00034     2.18863   
  1693. RY*(   3) H  90                  0.00017     2.26874   
  1694. RY*(   4) H  90                  0.00009     1.44594   
  1695. RY*(   5) H  90                  0.00000     3.24200   
  1710. BD*(   1) C   8 - C  13          0.01082     0.52766   
  1711. BD*(   2) C   8 - C  13          0.23116     0.02954  1731(v),1728(v),188(v)
                                                    378(g),1709(r)
  1712. BD*(   1) C   8 - C  43          0.00932     0.59360   
  1713. BD*(   1) C   8 - H  85          0.00801     0.42860   
  1714. BD*(   1) C   9 - C  16          0.01134     0.54436   
  1715. BD*(   1) C   9 - C  24          0.00990     0.58262   
  1716. BD*(   2) C   9 - C  24          0.19690     0.04985  1752(v),1728(v),404(g)
                                                    1719(r),798(g)
  1717. BD*(   1) C   9 - H  65          0.00638     0.44959   
  1718. BD*(   1) C  10 - C  27          0.00899     0.61501   
  1719. BD*(   2) C  10 - C  27          0.17732     0.05919  1752(v),1765(v),1760(r)
                                                    430(g),1716(r),876(g)
  1720. BD*(   1) C  10 - C  32          0.01137     0.55629   
  1721. BD*(   1) C  10 - H  69          0.00679     0.44779   
  1722. BD*(   1) C  11 - C  35          0.01093     0.58752   
  1723. BD*(   2) C  11 - C  35          0.20857     0.05054  1769(v),1782(v),1765(v)
                                                    1777(r),456(g),1084(g)
  1724. BD*(   1) C  11 - C  40          0.00972     0.62945   
  1725. BD*(   1) C  11 - H  76          0.00761     0.44686   
  1726. BD*(   1) N  12 - C  13          0.01389     0.43750   
  1727. BD*(   1) N  12 - C  16          0.01239     0.50343   
  1728. BD*(   2) N  12 - C  16          0.31912     0.00804  1716(v),1731(v),1711(v)
                                                    172(r),587(g),482(g),1765(r)
                                                    588(g),404(v),177(r),487(g)
                                                    176(r),171(r),174(r),173(r)
                                                    178(r),1804(r),175(r)
  1729. BD*(   1) C  13 - C  14          0.01400     0.51356   
  1730. BD*(   1) C  14 - C  15          0.01108     0.56714   
  1731. BD*(   2) C  14 - C  15          0.15118     0.05381  1711(v),1728(v),1738(v)
                                                    1736(v),1745(r),1739(v)
                                                    1735(v)
  1732. BD*(   1) C  14 - C  18          0.01299     0.36630   
  1733. BD*(   1) C  15 - C  16          0.01550     0.52303   
  1734. BD*(   1) C  15 - C  17          0.00812     0.38982   
  1735. BD*(   1) C  17 - H  66          0.00367     0.40254   
  1736. BD*(   1) C  17 - H  67          0.00520     0.40226   
  1737. BD*(   1) C  17 - H  68          0.00312     0.40867   
  1738. BD*(   1) C  18 - C  19          0.00865     0.32228   
  1739. BD*(   1) C  18 - H  86          0.00775     0.39104   
  1740. BD*(   1) C  18 - H  87          0.00717     0.37850   
  1741. BD*(   1) C  19 - C  20          0.04008     0.30952   
  1742. BD*(   1) C  19 - H  88          0.00620     0.38194   
  1743. BD*(   1) C  19 - H  89          0.00538     0.39705   
  1744. BD*(   1) C  20 - O  21          0.02542     0.50540   
  1745. BD*(   2) C  20 - O  21          0.10137     0.04214  1744(g),1738(v),1731(r)
                                                    1747(v)
  1746. BD*(   1) C  20 - O  22          0.03798     0.46225   
  1747. BD*(   1) O  22 - H  90          0.00657     0.36592   
  1748. BD*(   1) N  23 - C  24          0.01344     0.48221   
  1749. BD*(   1) N  23 - C  27          0.01374     0.46802   
  1750. BD*(   1) C  24 - C  25          0.01593     0.52324   
  1751. BD*(   1) C  25 - C  26          0.01013     0.62280   
  1752. BD*(   2) C  25 - C  26          0.12568     0.07216  1719(v),1760(v),1716(v)
                                                    1757(v),848(g)
  1753. BD*(   1) C  25 - C  28          0.00948     0.38228   
  1754. BD*(   1) C  26 - C  27          0.01879     0.45815   
  1755. BD*(   1) C  26 - C  29          0.01368     0.43610   
  1756. BD*(   1) C  28 - H  62          0.00290     0.41234   
  1757. BD*(   1) C  28 - H  63          0.00485     0.41190   
  1758. BD*(   1) C  28 - H  64          0.00353     0.42672   
  1759. BD*(   1) C  29 - C  30          0.00338     0.66041   
  1760. BD*(   2) C  29 - C  30          0.03494     0.05977   
  1761. BD*(   1) C  29 - H  61          0.01072     0.44251   
  1762. BD*(   1) C  30 - H  59          0.00511     0.44387   
  1763. BD*(   1) C  30 - H  60          0.00477     0.44460   
  1764. BD*(   1) N  31 - C  32          0.01317     0.47670   
  1765. BD*(   2) N  31 - C  32          0.31527     0.00793  1719(v),1769(v),1723(v)
                                                    176(r),1003(g),172(r),976(g)
                                                    1728(r),430(v),1004(g)
                                                    177(r),171(r),173(r),174(r)
  1766. BD*(   1) N  31 - C  35          0.01311     0.47813   
  1767. BD*(   1) C  32 - C  33          0.01474     0.53910   
  1768. BD*(   1) C  33 - C  34          0.01063     0.60434   
  1769. BD*(   2) C  33 - C  34          0.16806     0.06579  1723(v),1777(v),1765(v)
                                                    1773(v),1056(g),1030(g)
                                                    1774(v)
  1770. BD*(   1) C  33 - C  36          0.00864     0.39316   
  1771. BD*(   1) C  34 - C  35          0.01491     0.51004   
  1772. BD*(   1) C  34 - C  37          0.01499     0.42278   
  1773. BD*(   1) C  36 - H  70          0.00530     0.41379   
  1774. BD*(   1) C  36 - H  71          0.00283     0.41426   
  1775. BD*(   1) C  36 - H  72          0.00386     0.42759   
  1776. BD*(   1) C  37 - C  38          0.00343     0.70276   
  1777. BD*(   2) C  37 - C  38          0.07136     0.04912   
  1778. BD*(   1) C  37 - H  75          0.01190     0.42660   
  1779. BD*(   1) C  38 - H  73          0.00503     0.43084   
  1780. BD*(   1) C  38 - H  74          0.00532     0.42863   
  1781. BD*(   1) N  39 - C  40          0.01305     0.51582   
  1782. BD*(   2) N  39 - C  40          0.30381     0.01212  172(r),1723(v),1786(v)
                                                    188(v),1212(g),176(r)
                                                    1184(g),456(v),1706(r)
                                                    177(r),173(r),1804(r)
  1783. BD*(   1) N  39 - C  43          0.01410     0.45445   
  1784. BD*(   1) C  40 - C  41          0.01918     0.45656   
  1785. BD*(   1) C  41 - C  42          0.00920     0.70318   
  1786. BD*(   2) C  41 - C  42          0.10448     0.08486  1782(v),188(v),1793(v)
                                                    1790(v)
  1787. BD*(   1) C  41 - C  44          0.01004     0.35294   
  1788. BD*(   1) C  42 - C  43          0.01754     0.50166   
  1789. BD*(   1) C  42 - C  45          0.01355     0.36782   
  1790. BD*(   1) C  44 - H  77          0.00409     0.40845   
  1791. BD*(   1) C  44 - H  78          0.00275     0.41138   
  1792. BD*(   1) C  44 - H  79          0.00270     0.41508   
  1793. BD*(   1) C  45 - C  46          0.00791     0.32692   
  1794. BD*(   1) C  45 - H  80          0.00686     0.41168   
  1795. BD*(   1) C  45 - H  81          0.00618     0.39837   
  1796. BD*(   1) C  46 - C  47          0.03359     0.37196   
  1797. BD*(   1) C  46 - H  82          0.00662     0.39028   
  1798. BD*(   1) C  46 - H  83          0.00510     0.39362   
  1799. BD*(   1) C  47 - O  48          0.02271     0.56049   
  1800. BD*(   2) C  47 - O  48          0.09977     0.01332   
  1801. BD*(   1) C  47 - O  49          0.03392     0.53941   
  1802. BD*(   1) O  49 - H  84          0.00748     0.36645   
       -------------------------------
              Total Lewis  144.54012  ( 97.4665%)
        Valence non-Lewis    3.46022  (  2.3333%)
        Rydberg non-Lewis    0.29688  (  0.2002%)
       -------------------------------
            Total unit  3  148.29723  (100.0000%)
           Charge unit  3   -0.29723

 Molecular unit  4  (H2O)
   108. BD (   1) O  50 - H  57          0.99705    -0.74442  177(r),176(r),1804(g),352(r)
                                                    178(r),174(r),325(r),172(r)
                                                    357(r),353(r),980(r),772(r)
                                                    768(r)
   109. BD (   1) O  50 - H  58          0.93039    -0.77337  177(r),172(r),176(r),174(r)
                                                    173(r),1534(g),1528(v)
                                                    1803(g),175(r),178(r),357(r)
                                                    1185(r),483(r),1727(r)
                                                    355(r),1783(r),1187(r)
                                                    1781(r),326(r),1726(r)
                                                    1764(r),485(r),1766(r)
                                                    1748(r),359(r),1749(r)
                                                    331(r),356(r),979(r),171(r)
                                                    354(r),371(r),352(r),768(r)
   167. CR (   1) O  50                  0.99993   -18.96408  177(r),172(r),1528(v)
                                                    1531(v),176(r),355(r),174(r)
                                                    175(r)
   193. LP (   1) O  50                  0.98859    -0.58116  177(r),175(r),1804(g),172(r)
                                                    176(r),1534(v),174(r)
                                                    1528(v),173(r),977(r),358(r)
                                                    328(r),769(r),768(r),979(r)
                                                    326(r),1782(r),484(r)
                                                    1186(r),357(r)
   194. LP (   2) O  50                  0.96530    -0.29441  174(r),173(r),176(r),1527(v)
                                                    1533(v),1526(v),1765(r)
                                                    354(r),352(r),327(r),482(r)
                                                    1187(r),1184(r),485(r)
                                                    1782(r),1728(r),977(r)
                                                    356(r)
  1470. RY*(   1) O  50                  0.00258     0.87187   
  1471. RY*(   2) O  50                  0.00026     1.26897   
  1472. RY*(   3) O  50                  0.00019     0.84487   
  1473. RY*(   4) O  50                  0.00012     1.02816   
  1474. RY*(   5) O  50                  0.00002     3.23532   
  1475. RY*(   6) O  50                  0.00002     2.13599   
  1476. RY*(   7) O  50                  0.00002     2.54941   
  1477. RY*(   8) O  50                  0.00001     6.15334   
  1478. RY*(   9) O  50                  0.00000     3.50717   
  1479. RY*(  10) O  50                  0.00001     2.69304   
  1480. RY*(  11) O  50                  0.00000     6.43357   
  1481. RY*(  12) O  50                  0.00000     2.91648   
  1482. RY*(  13) O  50                  0.00000     6.55661   
  1483. RY*(  14) O  50                  0.00000    41.56098   
  1484. RY*(  15) O  50                  0.00000     6.52267   
  1485. RY*(  16) O  50                  0.00000     2.36694   
  1486. RY*(  17) O  50                  0.00000     6.39884   
  1487. RY*(  18) O  50                  0.00001     2.49714   
  1488. RY*(  19) O  50                  0.00000     6.60676   
  1489. RY*(  20) O  50                  0.00000     5.47085   
  1490. RY*(  21) O  50                  0.00000     5.54977   
  1491. RY*(  22) O  50                  0.00000     5.42788   
  1492. RY*(  23) O  50                  0.00000     5.54218   
  1493. RY*(  24) O  50                  0.00000     5.49798   
  1494. RY*(  25) O  50                  0.00000     5.33966   
  1495. RY*(  26) O  50                  0.00000     5.26979   
  1526. RY*(   1) H  57                  0.00064     1.43450   
  1527. RY*(   2) H  57                  0.00055     1.65440   
  1528. RY*(   3) H  57                  0.00029     2.22611   
  1529. RY*(   4) H  57                  0.00007     1.59830   
  1530. RY*(   5) H  57                  0.00000     2.99271   
  1531. RY*(   1) H  58                  0.00192     2.45853   
  1532. RY*(   2) H  58                  0.00075     2.89508   
  1533. RY*(   3) H  58                  0.00072     2.54489   
  1534. RY*(   4) H  58                  0.00041     2.41711   
  1535. RY*(   5) H  58                  0.00014     3.40270   
  1803. BD*(   1) O  50 - H  57          0.00168     0.46738   
  1804. BD*(   1) O  50 - H  58          0.04585     0.46377   
       -------------------------------
              Total Lewis    4.88125  ( 98.8607%)
        Valence non-Lewis    0.04752  (  0.9625%)
        Rydberg non-Lewis    0.00873  (  0.1768%)
       -------------------------------
            Total unit  4    4.93750  (100.0000%)
           Charge unit  4    0.06250
 1\1\GINC-NODE382\SP\UPBE1PBE\def2TZVP\C38H40Fe1N6O5(5)\ZHARTOVSKA\07-N
 ov-2022\0\\# PBE1PBE/def2TZVP empiricaldispersion=GD3BJ scf=maxcycle=9
 99 geom=check pop=nbo guess=read\\1a6k_II_Q\\0,5\C,0,9.492,29.440001,2
 .541\C,0,10.712,29.318001,3.393\N,0,11.007,30.238001,4.345\C,0,11.762,
 28.437,3.339\C,0,12.181,29.896999,4.878\N,0,12.674,28.809,4.311\Fe,0,1
 4.594,27.968,4.72\C,0,15.966,31.09,4.996\C,0,13.915,27.936001,8.079\C,
 0,13.416,24.757,4.507\C,0,15.491,27.867001,1.465\N,0,14.946,29.202,6.2
 8\C,0,15.449,30.523001,6.183\C,0,15.363,31.157,7.454\C,0,14.82,30.2560
 01,8.353\C,0,14.534,29.1,7.582\C,0,14.555,30.398001,9.834\C,0,15.764,3
 2.603001,7.755\C,0,14.507,33.476002,7.966\C,0,13.62,33.509998,6.704\O,
 0,12.466,33.068001,6.832\O,0,14.135,33.952,5.64\N,0,13.856,26.594999,6
 .046\C,0,13.58,26.785,7.394\C,0,12.943,25.636,7.942\C,0,12.796,24.715,
 6.966\C,0,13.334,25.334,5.735\C,0,12.508,25.525,9.403\C,0,12.252,23.32
 0999,7.02\C,0,12.407,22.542999,8.069\N,0,14.4,26.598,3.235\C,0,13.945,
 25.284,3.32\C,0,14.146,24.589001,2.11\C,0,14.75,25.464001,1.255\C,0,14
 .944,26.698999,1.957\C,0,13.788,23.136999,1.853\C,0,15.347,25.237,-0.0
 99\C,0,15.181,24.205,-0.871\N,0,15.52,29.250999,3.447\C,0,15.745,29.01
 8,2.123\C,0,16.482,30.193001,1.605\C,0,16.632,31.055,2.561\C,0,16.017,
 30.532,3.751\C,0,16.954,30.298,0.127\C,0,17.452999,32.355,2.535\C,0,18
 .951,32.058998,2.787\C,0,19.837,33.250999,2.699\O,0,20.240999,33.61700
 1,1.585\O,0,20.27,33.77,3.722\O,0,16.525,27.106001,4.962\H,0,9.7041903
 1,29.0710251,1.55930144\H,0,8.6969299,28.86864515,2.9726434\H,0,9.2005
 601,30.46776472,2.48046469\H,0,11.85852264,27.61061793,2.66618796\H,0,
 10.44742499,31.02652513,4.60015781\H,0,12.66363881,30.43645646,5.66600
 09\H,0,17.37633133,27.54966188,4.962\H,0,15.82293541,27.76075691,4.962
 \H,0,13.31919088,22.57333311,8.62746902\H,0,11.62091384,21.87970286,8.
 36396912\H,0,11.7171759,22.94372358,6.17352116\H,0,13.24401061,25.9832
 1394,10.03007923\H,0,11.56896924,26.02088759,9.53421255\H,0,12.4064899
 3,24.49319075,9.6675097\H,0,13.67346492,27.94519892,9.12134169\H,0,15.
 35257035,30.94823716,10.28789613\H,0,13.63234209,30.91899322,9.9828942
 1\H,0,14.49245622,29.4273147,10.27982101\H,0,13.02291944,23.76433016,4
 .43632991\H,0,14.5528405,22.50482949,2.25335075\H,0,12.85486359,22.910
 75917,2.32519909\H,0,13.70385204,22.97152843,0.79922649\H,0,15.9602773
 5,23.47813803,-0.96742868\H,0,14.26503471,24.0820867,-1.41025866\H,0,1
 5.98229778,26.01230147,-0.47343873\H,0,15.74718928,27.85898664,0.42615
 313\H,0,17.89469238,29.80015652,0.01677426\H,0,16.22981868,29.83773794
 ,-0.51223411\H,0,17.06225553,31.32835166,-0.14049992\H,0,17.34203994,3
 2.82298204,1.57918574\H,0,17.09142995,33.0155708,3.2951408\H,0,19.0522
 952,31.63334352,3.76345151\H,0,19.27958556,31.33914263,2.06676408\H,0,
 21.21732679,33.8403419,3.86065054\H,0,16.36675141,32.0782105,5.0839676
 2\H,0,16.3636287,32.62654858,8.64088427\H,0,16.33029991,32.99104423,6.
 93425226\H,0,14.81112463,34.47346653,8.20573469\H,0,13.93901555,33.078
 68159,8.78112585\H,0,15.08988726,33.98995872,5.54862466\\Version=ES64L
 -G16RevA.03\State=5-A\HF=-3438.5012385\S2=6.030043\S2-1=0.\S2A=6.00013
 7\RMSD=1.174e-09\Dipole=-0.2329072,1.2381881,1.0919039\Quadrupole=9.39
 743,-5.0180913,-4.3793386,8.8397374,17.0057903,14.3584161\PG=C01 [X(C3
 8H40Fe1N6O5)]\\@


 YOU CAN WIPE THE SLATE CLEAN, BUT YOU'LL STILL
 HAVE TO EAT A LITTLE CHALK DUST.
 Job cpu time:       0 days  4 hours 10 minutes 17.8 seconds.
 Elapsed time:       0 days  1 hours  2 minutes 55.0 seconds.
 File lengths (MBytes):  RWF=   2965 Int=      0 D2E=      0 Chk=    250 Scr=      1
 Normal termination of Gaussian 16 at Mon Nov  7 11:50:27 2022.
