 Initial command:
 /afs/math/software/gaussian/g16.A03/g16/l1.exe "/scratch/zhartovska_gaussian.NrRqiHV/Gau-15694.inp" -scrdir="/scratch/zhartovska_gaussian.NrRqiHV/"
 Entering Link 1 = /afs/math/software/gaussian/g16.A03/g16/l1.exe PID=     12413.
  
 Copyright (c) 1988,1990,1992,1993,1995,1998,2003,2009,2016,
            Gaussian, Inc.  All Rights Reserved.
  
 This is part of the Gaussian(R) 16 program.  It is based on
 the Gaussian(R) 09 system (copyright 2009, Gaussian, Inc.),
 the Gaussian(R) 03 system (copyright 2003, Gaussian, Inc.),
 the Gaussian(R) 98 system (copyright 1998, Gaussian, Inc.),
 the Gaussian(R) 94 system (copyright 1995, Gaussian, Inc.),
 the Gaussian 92(TM) system (copyright 1992, Gaussian, Inc.),
 the Gaussian 90(TM) system (copyright 1990, Gaussian, Inc.),
 the Gaussian 88(TM) system (copyright 1988, Gaussian, Inc.),
 the Gaussian 86(TM) system (copyright 1986, Carnegie Mellon
 University), and the Gaussian 82(TM) system (copyright 1983,
 Carnegie Mellon University). Gaussian is a federally registered
 trademark of Gaussian, Inc.
  
 This software contains proprietary and confidential information,
 including trade secrets, belonging to Gaussian, Inc.
  
 This software is provided under written license and may be
 used, copied, transmitted, or stored only in accord with that
 written license.
  
 The following legend is applicable only to US Government
 contracts under FAR:
  
                    RESTRICTED RIGHTS LEGEND
  
 Use, reproduction and disclosure by the US Government is
 subject to restrictions as set forth in subparagraphs (a)
 and (c) of the Commercial Computer Software - Restricted
 Rights clause in FAR 52.227-19.
  
 Gaussian, Inc.
 340 Quinnipiac St., Bldg. 40, Wallingford CT 06492
  
  
 ---------------------------------------------------------------
 Warning -- This program may not be used in any manner that
 competes with the business of Gaussian, Inc. or will provide
 assistance to any competitor of Gaussian, Inc.  The licensee
 of this program is prohibited from giving any competitor of
 Gaussian, Inc. access to this program.  By using this program,
 the user acknowledges that Gaussian, Inc. is engaged in the
 business of creating and licensing software in the field of
 computational chemistry and represents and warrants to the
 licensee that it is not a competitor of Gaussian, Inc. and that
 it will not use this program in any manner prohibited above.
 ---------------------------------------------------------------
  

 Cite this work as:
 Gaussian 16, Revision A.03,
 M. J. Frisch, G. W. Trucks, H. B. Schlegel, G. E. Scuseria, 
 M. A. Robb, J. R. Cheeseman, G. Scalmani, V. Barone, 
 G. A. Petersson, H. Nakatsuji, X. Li, M. Caricato, A. V. Marenich, 
 J. Bloino, B. G. Janesko, R. Gomperts, B. Mennucci, H. P. Hratchian, 
 J. V. Ortiz, A. F. Izmaylov, J. L. Sonnenberg, D. Williams-Young, 
 F. Ding, F. Lipparini, F. Egidi, J. Goings, B. Peng, A. Petrone, 
 T. Henderson, D. Ranasinghe, V. G. Zakrzewski, J. Gao, N. Rega, 
 G. Zheng, W. Liang, M. Hada, M. Ehara, K. Toyota, R. Fukuda, 
 J. Hasegawa, M. Ishida, T. Nakajima, Y. Honda, O. Kitao, H. Nakai, 
 T. Vreven, K. Throssell, J. A. Montgomery, Jr., J. E. Peralta, 
 F. Ogliaro, M. J. Bearpark, J. J. Heyd, E. N. Brothers, K. N. Kudin, 
 V. N. Staroverov, T. A. Keith, R. Kobayashi, J. Normand, 
 K. Raghavachari, A. P. Rendell, J. C. Burant, S. S. Iyengar, 
 J. Tomasi, M. Cossi, J. M. Millam, M. Klene, C. Adamo, R. Cammi, 
 J. W. Ochterski, R. L. Martin, K. Morokuma, O. Farkas, 
 J. B. Foresman, and D. J. Fox, Gaussian, Inc., Wallingford CT, 2016.
 
 ******************************************
 Gaussian 16:  ES64L-G16RevA.03 25-Dec-2016
                 2-Sep-2022 
 ******************************************
 %nprocs=12
 Will use up to   12 processors via shared memory.
 %mem=16GB
 %chk=1a6m_II_S.chk
 ----------------------------------------------------------------------
 # PBE1PBE/def2TZVP empiricaldispersion=GD3BJ int=(grid=ultrafine) geom
 =check guess=read pop=nbo scf=qc
 ----------------------------------------------------------------------
 1/29=2,38=1,172=1/1;
 2/12=2,40=1/2;
 3/5=44,7=101,11=2,14=-4,25=1,30=1,74=-13,75=-5,116=-2,124=41/1,2,3;
 4/5=1/1;
 5/5=2,8=3,38=6/8;
 6/7=2,8=2,9=2,10=2,28=1,40=1/1,7;
 99/5=1,9=1/99;
 -------------
 1a6m_II_S_nbo
 -------------
 Structure from the checkpoint file:  "1a6m_II_S.chk"
 Charge =  0 Multiplicity = 1
 Z-Matrix found in chk file.
 C,0,9.503,29.450001,2.528
 C,0,10.705,29.33,3.406
 N,0,10.972,30.184,4.45
 C,0,11.799,28.49,3.348
 C,0,12.167,29.837,4.966
 N,0,12.684,28.843,4.36
 Fe,0,14.515,27.975,4.75
 C,0,15.904,31.066,5.05
 C,0,13.782,28.006001,8.099
 C,0,13.251,24.816999,4.509
 C,0,15.381,27.908001,1.499
 N,0,14.784,29.263,6.257
 C,0,15.32,30.527,6.185
 C,0,15.292,31.177,7.5
 C,0,14.744,30.264,8.355
 C,0,14.411,29.112,7.593
 C,0,14.477,30.427999,9.835
 C,0,15.687,32.583,7.757
 C,0,14.458,33.523998,7.976
 C,0,13.561,33.534,6.775
 O,0,12.4,33.104,6.842
 O,0,14.05,33.974998,5.683
 N,0,13.664,26.679001,6.009
 C,0,13.423,26.879,7.368
 C,0,12.776,25.68,7.928
 C,0,12.644,24.799999,6.938
 C,0,13.185,25.434,5.76
 C,0,12.364,25.563999,9.367
 C,0,12.101,23.393,6.989
 C,0,12.33544484,22.61511205,8.07366262
 N,0,14.311,26.643999,3.267
 C,0,13.834,25.344,3.365
 C,0,14.05,24.629,2.134
 C,0,14.671,25.493,1.316
 C,0,14.805,26.752001,2.018
 C,0,13.686,23.193001,1.908
 C,0,15.24,25.292999,-0.044
 C,0,15.157,24.198999,-0.766
 N,0,15.389,29.280001,3.475
 C,0,15.682,29.076,2.164
 C,0,16.362,30.195,1.608
 C,0,16.57,31.069,2.646
 C,0,15.937,30.499001,3.808
 C,0,16.872,30.306,0.198
 C,0,17.386999,32.328999,2.587
 C,0,18.889,32.016998,2.859
 C,0,19.761999,33.226002,2.747
 O,0,20.186001,33.643002,1.646
 O,0,20.149,33.749001,3.83
 O,0,16.131001,27.289,5.175
 O,0,16.805,26.632,4.375
 H,0,11.94184704,27.69901919,2.64171105
 H,0,12.62895569,30.33883216,5.79041581
 H,0,10.38508529,30.92828811,4.76869474
 H,0,9.73434852,29.07413045,1.55326968
 H,0,8.69748747,28.88367956,2.94672377
 H,0,9.215918,30.478175,2.45491005
 H,0,11.53086522,23.00951256,6.16876606
 H,0,13.27179907,22.68136634,8.58722968
 H,0,11.58419761,21.93467384,8.4164912
 H,0,13.10623071,26.01994782,9.98837287
 H,0,11.42601091,26.05847705,9.51041517
 H,0,12.26612081,24.53089676,9.62780533
 H,0,13.54740649,28.00926417,9.14296132
 H,0,15.27398744,30.98498077,10.28163445
 H,0,13.55411414,30.95101626,9.97512362
 H,0,14.41405079,29.46399557,10.2950378
 H,0,12.8102471,23.84567497,4.42434476
 H,0,14.44685187,22.56317411,2.31948816
 H,0,12.75187891,22.98243469,2.38547212
 H,0,13.59936539,23.00806006,0.85767086
 H,0,15.97636758,23.51132912,-0.79143422
 H,0,14.27001464,23.99540787,-1.32876782
 H,0,15.76680459,26.11871544,-0.47477754
 H,0,15.61901743,27.88665359,0.45602733
 H,0,17.81483795,29.80622709,0.11936397
 H,0,16.17113032,29.85274244,-0.47150674
 H,0,16.99298414,31.338026,-0.05731388
 H,0,16.37558298,32.02047975,5.15713501
 H,0,17.28776525,32.76919021,1.6168019
 H,0,17.02978184,33.0164586,3.32503469
 H,0,19.2221061,31.28493154,2.15329537
 H,0,18.98394539,31.61366703,3.84551381
 H,0,21.08745141,33.83695656,4.01213394
 H,0,16.30498504,32.61373062,8.62995482
 H,0,16.25121482,32.94114726,6.92136122
 H,0,14.80676715,34.51848324,8.16109612
 H,0,13.90293047,33.18349889,8.82503367
 H,0,15.00189445,34.02161352,5.56757057
 Recover connectivity data from disk.
 Stoichiometry    C38H38FeN6O6
 Framework group  C1[X(C38H38FeN6O6)]
 Deg. of freedom   261
 Full point group                 C1      NOp   1
 Largest Abelian subgroup         C1      NOp   1
 Largest concise Abelian subgroup C1      NOp   1
                         Standard orientation:                         
 ---------------------------------------------------------------------
 Center     Atomic      Atomic             Coordinates (Angstroms)
 Number     Number       Type             X           Y           Z
 ---------------------------------------------------------------------
      1          6           0       -1.593213   -0.088727    5.340081
      2          6           0       -1.210641   -0.419821    3.935053
      3          7           0       -0.413737   -1.487716    3.595814
      4          6           0       -1.441400    0.240916    2.745104
      5          6           0       -0.206834   -1.436510    2.265679
      6          7           0       -0.798295   -0.447423    1.723055
      7         26           0       -0.747246    0.079337   -0.271439
      8          6           0        2.601930   -0.514834   -0.331246
      9          6           0       -1.318362   -3.193250   -1.118821
     10          6           0       -4.102281    0.682462   -0.364866
     11          6           0       -0.153927    3.320524    0.411293
     12          7           0        0.397979   -1.517917   -0.645063
     13          6           0        1.767803   -1.597516   -0.558918
     14          6           0        2.227035   -2.959048   -0.855304
     15          6           0        1.100999   -3.678989   -1.135708
     16          6           0       -0.011415   -2.808795   -0.981001
     17          6           0        1.007680   -5.144774   -1.498132
     18          6           0        3.631511   -3.421230   -0.742408
     19          6           0        3.876494   -4.300848    0.526503
     20          6           0        3.562988   -3.543008    1.781295
     21          8           0        2.640625   -3.900169    2.528952
     22          8           0        4.263272   -2.506631    2.029467
     23          7           0       -2.383006   -1.009151   -0.629741
     24          6           0       -2.423138   -2.366669   -0.946751
     25          6           0       -3.824717   -2.781388   -1.129494
     26          6           0       -4.586260   -1.707341   -0.933535
     27          6           0       -3.684827   -0.626366   -0.615362
     28          6           0       -4.229232   -4.187726   -1.464907
     29          6           0       -6.083968   -1.573614   -1.060357
     30          6           0       -6.746236   -2.258608   -2.024075
     31          7           0       -1.902207    1.689395    0.022240
     32          6           0       -3.278516    1.776034   -0.137126
     33          6           0       -3.714607    3.145839   -0.055265
     34          6           0       -2.600906    3.871333    0.130714
     35          6           0       -1.481495    2.956351    0.205343
     36          6           0       -5.133619    3.599088   -0.218469
     37          6           0       -2.408849    5.345745    0.181566
     38          6           0       -3.357406    6.253141    0.138206
     39          7           0        0.908348    1.187939    0.078615
     40          6           0        0.965306    2.521831    0.330951
     41          6           0        2.311213    2.965755    0.454090
     42          6           0        3.098928    1.877097    0.173174
     43          6           0        2.212654    0.761044   -0.038434
     44          6           0        2.754437    4.382048    0.695309
     45          6           0        4.594303    1.886263    0.023727
     46          6           0        4.993117    2.255747   -1.436329
     47          6           0        6.473491    2.345741   -1.628052
     48          8           0        7.123189    3.373545   -1.332453
     49          8           0        7.030659    1.372688   -2.210218
     50          8           0       -0.637735    0.450599   -2.035766
     51          8           0       -0.843930    1.580306   -2.490925
     52          1           0       -2.019051    1.134071    2.628943
     53          1           0        0.386354   -2.145429    1.726735
     54          1           0       -0.052907   -2.177782    4.223198
     55          1           0       -1.742578    0.966998    5.429717
     56          1           0       -2.498590   -0.599791    5.593077
     57          1           0       -0.812587   -0.396157    6.004167
     58          1           0       -6.623064   -0.937953   -0.389379
     59          1           0       -6.293984   -2.405808   -2.982564
     60          1           0       -7.721382   -2.652245   -1.826492
     61          1           0       -3.531093   -4.603214   -2.161234
     62          1           0       -4.237952   -4.778701   -0.572958
     63          1           0       -5.206954   -4.183579   -1.899582
     64          1           0       -1.504868   -4.213858   -1.380496
     65          1           0        1.833902   -5.410776   -2.123831
     66          1           0        1.031406   -5.734989   -0.605953
     67          1           0        0.091726   -5.325298   -2.020952
     68          1           0       -5.157456    0.859036   -0.346780
     69          1           0       -5.369356    3.665223   -1.260081
     70          1           0       -5.788951    2.895888    0.251584
     71          1           0       -5.255755    4.559782    0.236557
     72          1           0       -3.583319    6.747310   -0.783564
     73          1           0       -3.904263    6.498214    1.024652
     74          1           0       -1.402523    5.700567    0.260997
     75          1           0        0.018119    4.346232    0.662737
     76          1           0        2.755714    4.918006   -0.230783
     77          1           0        2.081547    4.854645    1.379978
     78          1           0        3.741481    4.381428    1.108401
     79          1           0        3.654766   -0.696229   -0.390693
     80          1           0        5.012124    2.605530    0.696765
     81          1           0        4.978844    0.916145    0.260157
     82          1           0        4.555524    3.200106   -1.684520
     83          1           0        4.604596    1.510590   -2.098667
     84          1           0        7.528691    1.517907   -3.017979
     85          1           0        3.877196   -3.994131   -1.612076
     86          1           0        4.273621   -2.566419   -0.698912
     87          1           0        4.901763   -4.606197    0.548527
     88          1           0        3.253164   -5.169105    0.476602
     89          1           0        4.754049   -2.078728    1.324033
 ---------------------------------------------------------------------
 Rotational constants (GHZ):           0.0699887           0.0509669           0.0377672
 Standard basis: def2TZVP (5D, 7F)
 There are  2080 symmetry adapted cartesian basis functions of A   symmetry.
 There are  1823 symmetry adapted basis functions of A   symmetry.
  1823 basis functions,  2956 primitive gaussians,  2080 cartesian basis functions
   191 alpha electrons      191 beta electrons
       nuclear repulsion energy      7976.7035712671 Hartrees.
 NAtoms=   89 NActive=   89 NUniq=   89 SFac= 1.00D+00 NAtFMM=   60 NAOKFM=T Big=T
 Integral buffers will be    131072 words long.
 Raffenetti 2 integral format.
 Two-electron integral symmetry is turned on.
 Nuclear repulsion after empirical dispersion term =     7976.5752894371 Hartrees.
 One-electron integrals computed using PRISM.
   1 Symmetry operations used in ECPInt.
 ECPInt:  NShTT=  257403 NPrTT=  800753 LenC2=  189247 LenP2D=  381000.
 LDataN:  DoStor=T MaxTD1= 6 Len=  172
 NBasis=  1823 RedAO= T EigKep=  2.91D-06  NBF=  1823
 NBsUse=  1823 1.00D-06 EigRej= -1.00D+00 NBFU=  1823
 Initial guess from the checkpoint file:  "1a6m_II_S.chk"
 B after Tr=    -0.000000    0.000000    0.000000
         Rot=    1.000000   -0.000000   -0.000000   -0.000000 Ang=   0.00 deg.
 SCF Done:  E(RPBE1PBE) =  -3512.44987679     a.u. after    1 cycles
            Convg  =    0.6110D-06                     1 Fock formations.
              S**2 =  0.0000                  -V/T =  2.0032

 **********************************************************************

            Population analysis using the SCF density.

 **********************************************************************

 Orbital symmetries:
       Occupied  (A) (A) (A) (A) (A) (A) (A) (A) (A) (A) (A) (A)
                 (A) (A) (A) (A) (A) (A) (A) (A) (A) (A) (A) (A)
                 (A) (A) (A) (A) (A) (A) (A) (A) (A) (A) (A) (A)
                 (A) (A) (A) (A) (A) (A) (A) (A) (A) (A) (A) (A)
                 (A) (A) (A) (A) (A) (A) (A) (A) (A) (A) (A) (A)
                 (A) (A) (A) (A) (A) (A) (A) (A) (A) (A) (A) (A)
                 (A) (A) (A) (A) (A) (A) (A) (A) (A) (A) (A) (A)
                 (A) (A) (A) (A) (A) (A) (A) (A) (A) (A) (A) (A)
                 (A) (A) (A) (A) (A) (A) (A) (A) (A) (A) (A) (A)
                 (A) (A) (A) (A) (A) (A) (A) (A) (A) (A) (A) (A)
                 (A) (A) (A) (A) (A) (A) (A) (A) (A) (A) (A) (A)
                 (A) (A) (A) (A) (A) (A) (A) (A) (A) (A) (A) (A)
                 (A) (A) (A) (A) (A) (A) (A) (A) (A) (A) (A) (A)
                 (A) (A) (A) (A) (A) (A) (A) (A) (A) (A) (A) (A)
                 (A) (A) (A) (A) (A) (A) (A) (A) (A) (A) (A) (A)
                 (A) (A) (A) (A) (A) (A) (A) (A) (A) (A) (A)
       Virtual   (A) (A) (A) (A) (A) (A) (A) (A) (A) (A) (A) (A)
                 (A) (A) (A) (A) (A) (A) (A) (A) (A) (A) (A) (A)
                 (A) (A) (A) (A) (A) (A) (A) (A) (A) (A) (A) (A)
                 (A) (A) (A) (A) (A) (A) (A) (A) (A) (A) (A) (A)
                 (A) (A) (A) (A) (A) (A) (A) (A) (A) (A) (A) (A)
                 (A) (A) (A) (A) (A) (A) (A) (A) (A) (A) (A) (A)
                 (A) (A) (A) (A) (A) (A) (A) (A) (A) (A) (A) (A)
                 (A) (A) (A) (A) (A) (A) (A) (A) (A) (A) (A) (A)
                 (A) (A) (A) (A) (A) (A) (A) (A) (A) (A) (A) (A)
                 (A) (A) (A) (A) (A) (A) (A) (A) (A) (A) (A) (A)
                 (A) (A) (A) (A) (A) (A) (A) (A) (A) (A) (A) (A)
                 (A) (A) (A) (A) (A) (A) (A) (A) (A) (A) (A) (A)
                 (A) (A) (A) (A) (A) (A) (A) (A) (A) (A) (A) (A)
                 (A) (A) (A) (A) (A) (A) (A) (A) (A) (A) (A) (A)
                 (A) (A) (A) (A) (A) (A) (A) (A) (A) (A) (A) (A)
                 (A) (A) (A) (A) (A) (A) (A) (A) (A) (A) (A) (A)
                 (A) (A) (A) (A) (A) (A) (A) (A) (A) (A) (A) (A)
                 (A) (A) (A) (A) (A) (A) (A) (A) (A) (A) (A) (A)
                 (A) (A) (A) (A) (A) (A) (A) (A) (A) (A) (A) (A)
                 (A) (A) (A) (A) (A) (A) (A) (A) (A) (A) (A) (A)
                 (A) (A) (A) (A) (A) (A) (A) (A) (A) (A) (A) (A)
                 (A) (A) (A) (A) (A) (A) (A) (A) (A) (A) (A) (A)
                 (A) (A) (A) (A) (A) (A) (A) (A) (A) (A) (A) (A)
                 (A) (A) (A) (A) (A) (A) (A) (A) (A) (A) (A) (A)
                 (A) (A) (A) (A) (A) (A) (A) (A) (A) (A) (A) (A)
                 (A) (A) (A) (A) (A) (A) (A) (A) (A) (A) (A) (A)
                 (A) (A) (A) (A) (A) (A) (A) (A) (A) (A) (A) (A)
                 (A) (A) (A) (A) (A) (A) (A) (A) (A) (A) (A) (A)
                 (A) (A) (A) (A) (A) (A) (A) (A) (A) (A) (A) (A)
                 (A) (A) (A) (A) (A) (A) (A) (A) (A) (A) (A) (A)
                 (A) (A) (A) (A) (A) (A) (A) (A) (A) (A) (A) (A)
                 (A) (A) (A) (A) (A) (A) (A) (A) (A) (A) (A) (A)
                 (A) (A) (A) (A) (A) (A) (A) (A) (A) (A) (A) (A)
                 (A) (A) (A) (A) (A) (A) (A) (A) (A) (A) (A) (A)
                 (A) (A) (A) (A) (A) (A) (A) (A) (A) (A) (A) (A)
                 (A) (A) (A) (A) (A) (A) (A) (A) (A) (A) (A) (A)
                 (A) (A) (A) (A) (A) (A) (A) (A) (A) (A) (A) (A)
                 (A) (A) (A) (A) (A) (A) (A) (A) (A) (A) (A) (A)
                 (A) (A) (A) (A) (A) (A) (A) (A) (A) (A) (A) (A)
                 (A) (A) (A) (A) (A) (A) (A) (A) (A) (A) (A) (A)
                 (A) (A) (A) (A) (A) (A) (A) (A) (A) (A) (A) (A)
                 (A) (A) (A) (A) (A) (A) (A) (A) (A) (A) (A) (A)
                 (A) (A) (A) (A) (A) (A) (A) (A) (A) (A) (A) (A)
                 (A) (A) (A) (A) (A) (A) (A) (A) (A) (A) (A) (A)
                 (A) (A) (A) (A) (A) (A) (A) (A) (A) (A) (A) (A)
                 (A) (A) (A) (A) (A) (A) (A) (A) (A) (A) (A) (A)
                 (A) (A) (A) (A) (A) (A) (A) (A) (A) (A) (A) (A)
                 (A) (A) (A) (A) (A) (A) (A) (A) (A) (A) (A) (A)
                 (A) (A) (A) (A) (A) (A) (A) (A) (A) (A) (A) (A)
                 (A) (A) (A) (A) (A) (A) (A) (A) (A) (A) (A) (A)
                 (A) (A) (A) (A) (A) (A) (A) (A) (A) (A) (A) (A)
                 (A) (A) (A) (A) (A) (A) (A) (A) (A) (A) (A) (A)
                 (A) (A) (A) (A) (A) (A) (A) (A) (A) (A) (A) (A)
                 (A) (A) (A) (A) (A) (A) (A) (A) (A) (A) (A) (A)
                 (A) (A) (A) (A) (A) (A) (A) (A) (A) (A) (A) (A)
                 (A) (A) (A) (A) (A) (A) (A) (A) (A) (A) (A) (A)
                 (A) (A) (A) (A) (A) (A) (A) (A) (A) (A) (A) (A)
                 (A) (A) (A) (A) (A) (A) (A) (A) (A) (A) (A) (A)
                 (A) (A) (A) (A) (A) (A) (A) (A) (A) (A) (A) (A)
                 (A) (A) (A) (A) (A) (A) (A) (A) (A) (A) (A) (A)
                 (A) (A) (A) (A) (A) (A) (A) (A) (A) (A) (A) (A)
                 (A) (A) (A) (A) (A) (A) (A) (A) (A) (A) (A) (A)
                 (A) (A) (A) (A) (A) (A) (A) (A) (A) (A) (A) (A)
                 (A) (A) (A) (A) (A) (A) (A) (A) (A) (A) (A) (A)
                 (A) (A) (A) (A) (A) (A) (A) (A) (A) (A) (A) (A)
                 (A) (A) (A) (A) (A) (A) (A) (A) (A) (A) (A) (A)
                 (A) (A) (A) (A) (A) (A) (A) (A) (A) (A) (A) (A)
                 (A) (A) (A) (A) (A) (A) (A) (A) (A) (A) (A) (A)
                 (A) (A) (A) (A) (A) (A) (A) (A) (A) (A) (A) (A)
                 (A) (A) (A) (A) (A) (A) (A) (A) (A) (A) (A) (A)
                 (A) (A) (A) (A) (A) (A) (A) (A) (A) (A) (A) (A)
                 (A) (A) (A) (A) (A) (A) (A) (A) (A) (A) (A) (A)
                 (A) (A) (A) (A) (A) (A) (A) (A) (A) (A) (A) (A)
                 (A) (A) (A) (A) (A) (A) (A) (A) (A) (A) (A) (A)
                 (A) (A) (A) (A) (A) (A) (A) (A) (A) (A) (A) (A)
                 (A) (A) (A) (A) (A) (A) (A) (A) (A) (A) (A) (A)
                 (A) (A) (A) (A) (A) (A) (A) (A) (A) (A) (A) (A)
                 (A) (A) (A) (A) (A) (A) (A) (A) (A) (A) (A) (A)
                 (A) (A) (A) (A) (A) (A) (A) (A) (A) (A) (A) (A)
                 (A) (A) (A) (A) (A) (A) (A) (A) (A) (A) (A) (A)
                 (A) (A) (A) (A) (A) (A) (A) (A) (A) (A) (A) (A)
                 (A) (A) (A) (A) (A) (A) (A) (A) (A) (A) (A) (A)
                 (A) (A) (A) (A) (A) (A) (A) (A) (A) (A) (A) (A)
                 (A) (A) (A) (A) (A) (A) (A) (A) (A) (A) (A) (A)
                 (A) (A) (A) (A) (A) (A) (A) (A) (A) (A) (A) (A)
                 (A) (A) (A) (A) (A) (A) (A) (A) (A) (A) (A) (A)
                 (A) (A) (A) (A) (A) (A) (A) (A) (A) (A) (A) (A)
                 (A) (A) (A) (A) (A) (A) (A) (A) (A) (A) (A) (A)
                 (A) (A) (A) (A) (A) (A) (A) (A) (A) (A) (A) (A)
                 (A) (A) (A) (A) (A) (A) (A) (A) (A) (A) (A) (A)
                 (A) (A) (A) (A) (A) (A) (A) (A) (A) (A) (A) (A)
                 (A) (A) (A) (A) (A) (A) (A) (A) (A) (A) (A) (A)
                 (A) (A) (A) (A) (A) (A) (A) (A) (A) (A) (A) (A)
                 (A) (A) (A) (A) (A) (A) (A) (A) (A) (A) (A) (A)
                 (A) (A) (A) (A) (A) (A) (A) (A) (A) (A) (A) (A)
                 (A) (A) (A) (A) (A) (A) (A) (A) (A) (A) (A) (A)
                 (A) (A) (A) (A) (A) (A) (A) (A) (A) (A) (A) (A)
                 (A) (A) (A) (A) (A) (A) (A) (A) (A) (A) (A) (A)
                 (A) (A) (A) (A) (A) (A) (A) (A) (A) (A) (A) (A)
                 (A) (A) (A) (A) (A) (A) (A) (A) (A) (A) (A) (A)
                 (A) (A) (A) (A) (A) (A) (A) (A) (A) (A) (A) (A)
                 (A) (A) (A) (A) (A) (A) (A) (A) (A) (A) (A) (A)
                 (A) (A) (A) (A) (A) (A) (A) (A) (A) (A) (A) (A)
                 (A) (A) (A) (A) (A) (A) (A) (A) (A) (A) (A) (A)
                 (A) (A) (A) (A) (A) (A) (A) (A) (A) (A) (A) (A)
                 (A) (A) (A) (A) (A) (A) (A) (A) (A) (A) (A) (A)
                 (A) (A) (A) (A) (A) (A) (A) (A) (A) (A) (A) (A)
                 (A) (A) (A) (A) (A) (A) (A) (A) (A) (A) (A) (A)
                 (A) (A) (A) (A) (A) (A) (A) (A) (A) (A) (A) (A)
                 (A) (A) (A) (A) (A) (A) (A) (A) (A) (A) (A) (A)
                 (A) (A) (A) (A) (A) (A) (A) (A) (A) (A) (A) (A)
                 (A) (A) (A) (A) (A) (A) (A) (A) (A) (A) (A) (A)
                 (A) (A) (A) (A) (A) (A) (A) (A) (A) (A) (A) (A)
                 (A) (A) (A) (A) (A) (A) (A) (A) (A) (A) (A) (A)
                 (A) (A) (A) (A) (A) (A) (A) (A) (A) (A) (A) (A)
                 (A) (A) (A) (A) (A) (A) (A) (A) (A) (A) (A) (A)
                 (A) (A) (A) (A) (A) (A) (A) (A) (A) (A) (A) (A)
                 (A) (A) (A) (A) (A) (A) (A) (A) (A) (A) (A) (A)
                 (A) (A) (A) (A) (A) (A) (A) (A) (A) (A) (A) (A)
                 (A) (A) (A) (A) (A) (A) (A) (A) (A) (A) (A) (A)
                 (A) (A) (A) (A) (A) (A) (A) (A) (A) (A) (A) (A)
                 (A) (A) (A) (A) (A) (A) (A) (A) (A) (A) (A) (A)
                 (A) (A) (A) (A) (A) (A) (A) (A) (A) (A) (A) (A)
                 (A) (A) (A) (A) (A) (A) (A) (A) (A) (A) (A) (A)
                 (A) (A) (A) (A) (A) (A) (A) (A) (A) (A) (A) (A)
                 (A) (A) (A) (A) (A) (A) (A) (A) (A) (A) (A) (A)
                 (A) (A) (A) (A) (A) (A) (A) (A) (A) (A) (A) (A)
                 (A) (A) (A) (A) (A) (A) (A) (A) (A) (A) (A) (A)
                 (A) (A) (A) (A) (A) (A) (A) (A) (A) (A) (A) (A)
                 (A) (A) (A) (A) (A) (A) (A) (A) (A) (A) (A) (A)
                 (A) (A) (A) (A) (A) (A) (A) (A) (A) (A) (A) (A)
                 (A) (A) (A) (A) (A) (A) (A) (A) (A) (A) (A) (A)
                 (A) (A) (A) (A) (A) (A) (A) (A) (A) (A) (A) (A)
                 (A) (A) (A) (A) (A) (A) (A) (A) (A) (A) (A) (A)
                 (A) (A) (A) (A) (A) (A) (A) (A) (A) (A) (A) (A)
                 (A) (A) (A) (A) (A) (A) (A) (A) (A) (A) (A) (A)
 The electronic state is 1-A.
 Alpha  occ. eigenvalues -- -256.36810 -30.14232 -25.97235 -25.97047 -25.95951
 Alpha  occ. eigenvalues --  -19.31644 -19.27328 -19.25878 -19.25598 -19.18801
 Alpha  occ. eigenvalues --  -19.18381 -14.44668 -14.39868 -14.38531 -14.38096
 Alpha  occ. eigenvalues --  -14.37982 -14.37590 -10.36070 -10.35567 -10.27850
 Alpha  occ. eigenvalues --  -10.26872 -10.25567 -10.25412 -10.25044 -10.25023
 Alpha  occ. eigenvalues --  -10.25013 -10.24992 -10.24930 -10.24830 -10.24632
 Alpha  occ. eigenvalues --  -10.24472 -10.24081 -10.23890 -10.23645 -10.23561
 Alpha  occ. eigenvalues --  -10.23360 -10.23003 -10.22997 -10.22922 -10.22899
 Alpha  occ. eigenvalues --  -10.22623 -10.22604 -10.22507 -10.22486 -10.22483
 Alpha  occ. eigenvalues --  -10.22331 -10.22321 -10.22073 -10.22072 -10.21696
 Alpha  occ. eigenvalues --  -10.21635 -10.21386 -10.20845 -10.20697 -10.19925
 Alpha  occ. eigenvalues --   -3.48136  -2.24452  -2.23901  -2.22259  -1.23125
 Alpha  occ. eigenvalues --   -1.16864  -1.16608  -1.06705  -1.04068  -1.02632
 Alpha  occ. eigenvalues --   -0.98790  -0.97832  -0.97744  -0.96760  -0.92220
 Alpha  occ. eigenvalues --   -0.85379  -0.84606  -0.84055  -0.83454  -0.83175
 Alpha  occ. eigenvalues --   -0.81810  -0.81462  -0.81336  -0.80027  -0.79621
 Alpha  occ. eigenvalues --   -0.79044  -0.78079  -0.77316  -0.75966  -0.74866
 Alpha  occ. eigenvalues --   -0.73781  -0.73225  -0.72733  -0.72028  -0.70244
 Alpha  occ. eigenvalues --   -0.70045  -0.69865  -0.67918  -0.66587  -0.65961
 Alpha  occ. eigenvalues --   -0.65659  -0.64783  -0.62217  -0.61507  -0.60806
 Alpha  occ. eigenvalues --   -0.59917  -0.58392  -0.57168  -0.57057  -0.55832
 Alpha  occ. eigenvalues --   -0.55269  -0.54553  -0.54357  -0.53046  -0.52903
 Alpha  occ. eigenvalues --   -0.52534  -0.51969  -0.51461  -0.51047  -0.50901
 Alpha  occ. eigenvalues --   -0.50044  -0.49369  -0.49269  -0.49043  -0.48609
 Alpha  occ. eigenvalues --   -0.48432  -0.48275  -0.48223  -0.47892  -0.46605
 Alpha  occ. eigenvalues --   -0.46572  -0.46049  -0.45949  -0.45574  -0.45187
 Alpha  occ. eigenvalues --   -0.44953  -0.44595  -0.44326  -0.44304  -0.44147
 Alpha  occ. eigenvalues --   -0.44012  -0.43864  -0.43671  -0.43527  -0.43252
 Alpha  occ. eigenvalues --   -0.43180  -0.42879  -0.42707  -0.42430  -0.41925
 Alpha  occ. eigenvalues --   -0.41754  -0.41616  -0.40961  -0.40698  -0.40482
 Alpha  occ. eigenvalues --   -0.40098  -0.39812  -0.39616  -0.39510  -0.39214
 Alpha  occ. eigenvalues --   -0.38851  -0.38760  -0.38481  -0.38284  -0.38004
 Alpha  occ. eigenvalues --   -0.37369  -0.37128  -0.37112  -0.36418  -0.36076
 Alpha  occ. eigenvalues --   -0.35433  -0.35121  -0.33770  -0.33497  -0.33276
 Alpha  occ. eigenvalues --   -0.33102  -0.32922  -0.31614  -0.30910  -0.29220
 Alpha  occ. eigenvalues --   -0.29152  -0.28812  -0.28300  -0.27892  -0.27884
 Alpha  occ. eigenvalues --   -0.25936  -0.25551  -0.24925  -0.24473  -0.23636
 Alpha  occ. eigenvalues --   -0.23067  -0.22259  -0.21490  -0.19861  -0.19613
 Alpha  occ. eigenvalues --   -0.16727
 Alpha virt. eigenvalues --   -0.11119  -0.09295  -0.07661  -0.05980  -0.02962
 Alpha virt. eigenvalues --   -0.02051  -0.00583   0.00037   0.00066   0.00208
 Alpha virt. eigenvalues --    0.01456   0.02237   0.03404   0.03531   0.04015
 Alpha virt. eigenvalues --    0.04521   0.04685   0.04759   0.05439   0.05596
 Alpha virt. eigenvalues --    0.06565   0.06962   0.07025   0.07610   0.07781
 Alpha virt. eigenvalues --    0.07988   0.08150   0.08617   0.08832   0.09181
 Alpha virt. eigenvalues --    0.09475   0.09595   0.09971   0.10609   0.10783
 Alpha virt. eigenvalues --    0.10902   0.11165   0.11333   0.11734   0.11909
 Alpha virt. eigenvalues --    0.12003   0.12538   0.12823   0.12864   0.13093
 Alpha virt. eigenvalues --    0.13410   0.13500   0.13688   0.13846   0.13982
 Alpha virt. eigenvalues --    0.14342   0.14482   0.14656   0.14857   0.15059
 Alpha virt. eigenvalues --    0.15110   0.15461   0.15581   0.15831   0.16282
 Alpha virt. eigenvalues --    0.16481   0.16641   0.16897   0.17113   0.17308
 Alpha virt. eigenvalues --    0.17799   0.17903   0.18351   0.18431   0.18488
 Alpha virt. eigenvalues --    0.18592   0.18932   0.19227   0.19312   0.19546
 Alpha virt. eigenvalues --    0.19779   0.19991   0.20130   0.20772   0.20819
 Alpha virt. eigenvalues --    0.21160   0.21282   0.21534   0.21766   0.21858
 Alpha virt. eigenvalues --    0.22083   0.22400   0.22623   0.22985   0.23293
 Alpha virt. eigenvalues --    0.23534   0.23706   0.23999   0.24354   0.24496
 Alpha virt. eigenvalues --    0.24885   0.24976   0.25089   0.25296   0.25484
 Alpha virt. eigenvalues --    0.26076   0.26102   0.26253   0.26540   0.26866
 Alpha virt. eigenvalues --    0.27081   0.27125   0.27411   0.27701   0.27989
 Alpha virt. eigenvalues --    0.28301   0.28408   0.28484   0.28682   0.29121
 Alpha virt. eigenvalues --    0.29314   0.29678   0.29812   0.30099   0.30270
 Alpha virt. eigenvalues --    0.30437   0.30641   0.30876   0.31333   0.31357
 Alpha virt. eigenvalues --    0.31601   0.31785   0.31972   0.32434   0.32712
 Alpha virt. eigenvalues --    0.32931   0.33283   0.33457   0.33668   0.33858
 Alpha virt. eigenvalues --    0.34308   0.34488   0.34705   0.34799   0.35362
 Alpha virt. eigenvalues --    0.35420   0.35925   0.36091   0.36330   0.36608
 Alpha virt. eigenvalues --    0.36762   0.37052   0.37301   0.37569   0.37644
 Alpha virt. eigenvalues --    0.37752   0.37975   0.38115   0.38502   0.38685
 Alpha virt. eigenvalues --    0.38764   0.39077   0.39385   0.39459   0.39612
 Alpha virt. eigenvalues --    0.39769   0.39820   0.40262   0.40779   0.40916
 Alpha virt. eigenvalues --    0.40969   0.41193   0.41352   0.41395   0.41428
 Alpha virt. eigenvalues --    0.41721   0.41848   0.42047   0.42379   0.42461
 Alpha virt. eigenvalues --    0.42728   0.42983   0.43181   0.43236   0.43517
 Alpha virt. eigenvalues --    0.43740   0.44043   0.44094   0.44336   0.44456
 Alpha virt. eigenvalues --    0.44652   0.44735   0.44831   0.45129   0.45457
 Alpha virt. eigenvalues --    0.45742   0.45953   0.46064   0.46296   0.46482
 Alpha virt. eigenvalues --    0.46539   0.46806   0.46881   0.47115   0.47257
 Alpha virt. eigenvalues --    0.47442   0.47570   0.47799   0.47854   0.48106
 Alpha virt. eigenvalues --    0.48348   0.48472   0.48577   0.48828   0.49239
 Alpha virt. eigenvalues --    0.49448   0.49465   0.49719   0.49767   0.49989
 Alpha virt. eigenvalues --    0.50304   0.50498   0.50862   0.50985   0.51202
 Alpha virt. eigenvalues --    0.51388   0.51579   0.51710   0.51931   0.52137
 Alpha virt. eigenvalues --    0.52472   0.52820   0.52973   0.53293   0.53530
 Alpha virt. eigenvalues --    0.53611   0.53944   0.53988   0.54240   0.54521
 Alpha virt. eigenvalues --    0.54557   0.54710   0.55006   0.55414   0.55488
 Alpha virt. eigenvalues --    0.55624   0.55788   0.56102   0.56511   0.56713
 Alpha virt. eigenvalues --    0.56924   0.57311   0.57508   0.57604   0.57837
 Alpha virt. eigenvalues --    0.58104   0.58295   0.58643   0.58870   0.59167
 Alpha virt. eigenvalues --    0.59443   0.59626   0.59775   0.60129   0.60313
 Alpha virt. eigenvalues --    0.60659   0.60754   0.61003   0.61519   0.61726
 Alpha virt. eigenvalues --    0.61750   0.62183   0.62524   0.62806   0.62907
 Alpha virt. eigenvalues --    0.63369   0.63503   0.63857   0.64011   0.64191
 Alpha virt. eigenvalues --    0.64279   0.64482   0.64874   0.65085   0.65580
 Alpha virt. eigenvalues --    0.65727   0.65731   0.66152   0.66187   0.66599
 Alpha virt. eigenvalues --    0.66689   0.66794   0.67241   0.67290   0.67823
 Alpha virt. eigenvalues --    0.67875   0.68284   0.68840   0.68971   0.69359
 Alpha virt. eigenvalues --    0.69505   0.69746   0.69777   0.70227   0.70656
 Alpha virt. eigenvalues --    0.70833   0.71206   0.71369   0.71719   0.72042
 Alpha virt. eigenvalues --    0.72115   0.72198   0.72516   0.73035   0.73218
 Alpha virt. eigenvalues --    0.73499   0.73843   0.74046   0.74572   0.74810
 Alpha virt. eigenvalues --    0.74923   0.75048   0.75309   0.75785   0.76113
 Alpha virt. eigenvalues --    0.76497   0.76893   0.77310   0.77815   0.78078
 Alpha virt. eigenvalues --    0.78150   0.78373   0.78815   0.79002   0.79077
 Alpha virt. eigenvalues --    0.79925   0.80348   0.80441   0.80619   0.80911
 Alpha virt. eigenvalues --    0.81213   0.81881   0.81991   0.82414   0.82639
 Alpha virt. eigenvalues --    0.82772   0.83011   0.83437   0.83810   0.84180
 Alpha virt. eigenvalues --    0.84309   0.84522   0.84957   0.85425   0.85724
 Alpha virt. eigenvalues --    0.86037   0.86358   0.86449   0.86545   0.86858
 Alpha virt. eigenvalues --    0.87252   0.87379   0.88124   0.88488   0.88707
 Alpha virt. eigenvalues --    0.88968   0.89486   0.89791   0.89816   0.90026
 Alpha virt. eigenvalues --    0.90590   0.91083   0.91319   0.91598   0.91802
 Alpha virt. eigenvalues --    0.92222   0.92412   0.93099   0.93287   0.93502
 Alpha virt. eigenvalues --    0.93871   0.93984   0.94165   0.94449   0.94586
 Alpha virt. eigenvalues --    0.94771   0.94855   0.95176   0.95528   0.95855
 Alpha virt. eigenvalues --    0.96249   0.96658   0.96827   0.97198   0.97292
 Alpha virt. eigenvalues --    0.97738   0.97903   0.97985   0.98198   0.98443
 Alpha virt. eigenvalues --    0.99047   0.99250   0.99306   0.99757   0.99997
 Alpha virt. eigenvalues --    1.00338   1.00392   1.00598   1.01079   1.01433
 Alpha virt. eigenvalues --    1.01677   1.02272   1.02426   1.02631   1.03275
 Alpha virt. eigenvalues --    1.03552   1.03883   1.04092   1.04359   1.04944
 Alpha virt. eigenvalues --    1.05270   1.05413   1.05637   1.05798   1.06336
 Alpha virt. eigenvalues --    1.06448   1.07103   1.07698   1.08258   1.08359
 Alpha virt. eigenvalues --    1.08860   1.09016   1.09283   1.09654   1.09760
 Alpha virt. eigenvalues --    1.10089   1.10289   1.10755   1.11425   1.11548
 Alpha virt. eigenvalues --    1.12145   1.12481   1.12759   1.13190   1.13384
 Alpha virt. eigenvalues --    1.13739   1.14315   1.14581   1.15376   1.15684
 Alpha virt. eigenvalues --    1.15796   1.16016   1.16259   1.16793   1.17168
 Alpha virt. eigenvalues --    1.17557   1.17828   1.18132   1.18467   1.19014
 Alpha virt. eigenvalues --    1.19413   1.19747   1.19913   1.20363   1.20460
 Alpha virt. eigenvalues --    1.20949   1.21236   1.22093   1.22337   1.22927
 Alpha virt. eigenvalues --    1.23297   1.23840   1.24300   1.24481   1.24961
 Alpha virt. eigenvalues --    1.25222   1.25423   1.25575   1.26129   1.26757
 Alpha virt. eigenvalues --    1.26838   1.27132   1.27829   1.28359   1.28542
 Alpha virt. eigenvalues --    1.28858   1.29316   1.29712   1.29856   1.30330
 Alpha virt. eigenvalues --    1.30385   1.30745   1.31436   1.31758   1.32123
 Alpha virt. eigenvalues --    1.32651   1.32841   1.32987   1.33791   1.33853
 Alpha virt. eigenvalues --    1.34620   1.34744   1.35306   1.35377   1.35937
 Alpha virt. eigenvalues --    1.36519   1.36902   1.37118   1.37382   1.37670
 Alpha virt. eigenvalues --    1.37778   1.38270   1.38804   1.39079   1.39449
 Alpha virt. eigenvalues --    1.40065   1.40439   1.40961   1.41377   1.41841
 Alpha virt. eigenvalues --    1.42475   1.42707   1.42790   1.43547   1.43853
 Alpha virt. eigenvalues --    1.44140   1.44290   1.44677   1.44744   1.45531
 Alpha virt. eigenvalues --    1.46083   1.46388   1.46676   1.47032   1.47710
 Alpha virt. eigenvalues --    1.47752   1.48004   1.48673   1.48890   1.49071
 Alpha virt. eigenvalues --    1.49262   1.49840   1.49926   1.50354   1.50795
 Alpha virt. eigenvalues --    1.51178   1.51601   1.52018   1.52201   1.52301
 Alpha virt. eigenvalues --    1.52653   1.52822   1.52954   1.53666   1.53706
 Alpha virt. eigenvalues --    1.53999   1.54148   1.54364   1.54630   1.54911
 Alpha virt. eigenvalues --    1.55308   1.55676   1.55772   1.56140   1.56310
 Alpha virt. eigenvalues --    1.56346   1.56727   1.56930   1.57165   1.57903
 Alpha virt. eigenvalues --    1.58069   1.58512   1.58796   1.59166   1.59429
 Alpha virt. eigenvalues --    1.59752   1.60013   1.60276   1.60531   1.60794
 Alpha virt. eigenvalues --    1.61211   1.61452   1.61731   1.61939   1.62169
 Alpha virt. eigenvalues --    1.62435   1.62697   1.62827   1.63123   1.63359
 Alpha virt. eigenvalues --    1.63704   1.63793   1.64100   1.64444   1.64809
 Alpha virt. eigenvalues --    1.64864   1.65212   1.65438   1.65731   1.66149
 Alpha virt. eigenvalues --    1.66571   1.66825   1.67030   1.67311   1.67540
 Alpha virt. eigenvalues --    1.68111   1.68352   1.68694   1.68888   1.69649
 Alpha virt. eigenvalues --    1.69762   1.70157   1.70309   1.70518   1.71082
 Alpha virt. eigenvalues --    1.71309   1.71690   1.72070   1.72271   1.72454
 Alpha virt. eigenvalues --    1.72815   1.72962   1.73410   1.73822   1.74005
 Alpha virt. eigenvalues --    1.74386   1.74630   1.74995   1.75072   1.75369
 Alpha virt. eigenvalues --    1.75772   1.76026   1.76295   1.76542   1.77113
 Alpha virt. eigenvalues --    1.77283   1.77967   1.78507   1.78834   1.79130
 Alpha virt. eigenvalues --    1.79716   1.80184   1.80458   1.81028   1.81910
 Alpha virt. eigenvalues --    1.82050   1.82587   1.82793   1.83332   1.83935
 Alpha virt. eigenvalues --    1.84297   1.84767   1.85188   1.85332   1.85640
 Alpha virt. eigenvalues --    1.86225   1.86599   1.86777   1.87153   1.87350
 Alpha virt. eigenvalues --    1.87505   1.87914   1.88170   1.88424   1.88713
 Alpha virt. eigenvalues --    1.89473   1.90068   1.90140   1.90239   1.90720
 Alpha virt. eigenvalues --    1.91127   1.91514   1.91601   1.92125   1.92273
 Alpha virt. eigenvalues --    1.92617   1.93045   1.93645   1.94097   1.94515
 Alpha virt. eigenvalues --    1.94972   1.95737   1.96215   1.96572   1.97003
 Alpha virt. eigenvalues --    1.97547   1.97815   1.98056   1.98386   1.98758
 Alpha virt. eigenvalues --    1.99258   1.99268   1.99898   2.00017   2.00252
 Alpha virt. eigenvalues --    2.01070   2.01151   2.01661   2.01976   2.02252
 Alpha virt. eigenvalues --    2.02618   2.02938   2.03477   2.04008   2.04260
 Alpha virt. eigenvalues --    2.04599   2.04866   2.05755   2.05993   2.06703
 Alpha virt. eigenvalues --    2.06971   2.07741   2.08036   2.08235   2.08549
 Alpha virt. eigenvalues --    2.09082   2.09602   2.09939   2.10240   2.10524
 Alpha virt. eigenvalues --    2.11096   2.11220   2.11723   2.12047   2.12302
 Alpha virt. eigenvalues --    2.12695   2.12712   2.13166   2.13392   2.13933
 Alpha virt. eigenvalues --    2.14086   2.14258   2.14901   2.15230   2.15652
 Alpha virt. eigenvalues --    2.16285   2.16745   2.17010   2.17202   2.17743
 Alpha virt. eigenvalues --    2.17861   2.18177   2.18551   2.18894   2.19261
 Alpha virt. eigenvalues --    2.19634   2.19776   2.20342   2.20819   2.21024
 Alpha virt. eigenvalues --    2.21210   2.21642   2.22179   2.22572   2.23114
 Alpha virt. eigenvalues --    2.23391   2.24010   2.24396   2.25097   2.25586
 Alpha virt. eigenvalues --    2.25887   2.26198   2.26343   2.26427   2.26936
 Alpha virt. eigenvalues --    2.27419   2.27707   2.27932   2.28361   2.28890
 Alpha virt. eigenvalues --    2.29241   2.29651   2.29868   2.30398   2.30583
 Alpha virt. eigenvalues --    2.30720   2.31778   2.32146   2.32626   2.32906
 Alpha virt. eigenvalues --    2.33129   2.33711   2.34284   2.34640   2.35100
 Alpha virt. eigenvalues --    2.35395   2.35834   2.36175   2.36908   2.36968
 Alpha virt. eigenvalues --    2.37334   2.37859   2.38345   2.38732   2.39105
 Alpha virt. eigenvalues --    2.39280   2.39853   2.40088   2.40555   2.40791
 Alpha virt. eigenvalues --    2.41395   2.41565   2.42097   2.42379   2.42755
 Alpha virt. eigenvalues --    2.42976   2.43495   2.44098   2.44347   2.44461
 Alpha virt. eigenvalues --    2.45122   2.45253   2.45677   2.45966   2.46331
 Alpha virt. eigenvalues --    2.46439   2.47185   2.47712   2.48052   2.48315
 Alpha virt. eigenvalues --    2.48669   2.49486   2.49536   2.50060   2.50302
 Alpha virt. eigenvalues --    2.50891   2.51170   2.52680   2.52720   2.53042
 Alpha virt. eigenvalues --    2.53167   2.53606   2.54092   2.54397   2.54898
 Alpha virt. eigenvalues --    2.55080   2.55412   2.55908   2.56351   2.56537
 Alpha virt. eigenvalues --    2.56898   2.57106   2.57363   2.57745   2.58495
 Alpha virt. eigenvalues --    2.58544   2.59007   2.59294   2.59581   2.59759
 Alpha virt. eigenvalues --    2.60035   2.60351   2.60811   2.60979   2.61357
 Alpha virt. eigenvalues --    2.61508   2.61738   2.62379   2.62488   2.62885
 Alpha virt. eigenvalues --    2.62942   2.63409   2.63614   2.63708   2.64368
 Alpha virt. eigenvalues --    2.64742   2.65232   2.65446   2.65666   2.65886
 Alpha virt. eigenvalues --    2.66267   2.66719   2.67018   2.67319   2.67408
 Alpha virt. eigenvalues --    2.67900   2.68024   2.68461   2.68910   2.69322
 Alpha virt. eigenvalues --    2.69740   2.70074   2.70581   2.71048   2.71551
 Alpha virt. eigenvalues --    2.72152   2.72205   2.72753   2.72999   2.73244
 Alpha virt. eigenvalues --    2.73901   2.74425   2.74564   2.75056   2.75311
 Alpha virt. eigenvalues --    2.75417   2.75812   2.76275   2.76579   2.76691
 Alpha virt. eigenvalues --    2.76898   2.77219   2.77973   2.77993   2.78451
 Alpha virt. eigenvalues --    2.78683   2.79272   2.79587   2.79950   2.80265
 Alpha virt. eigenvalues --    2.80776   2.81119   2.81400   2.81955   2.82312
 Alpha virt. eigenvalues --    2.82507   2.83313   2.83810   2.84025   2.84505
 Alpha virt. eigenvalues --    2.84898   2.85093   2.85648   2.85880   2.86117
 Alpha virt. eigenvalues --    2.86224   2.86805   2.86852   2.87439   2.87669
 Alpha virt. eigenvalues --    2.88279   2.88512   2.88832   2.89498   2.89671
 Alpha virt. eigenvalues --    2.89900   2.90438   2.90820   2.91091   2.91500
 Alpha virt. eigenvalues --    2.91980   2.92018   2.92470   2.92584   2.92909
 Alpha virt. eigenvalues --    2.93099   2.93364   2.93395   2.93694   2.94266
 Alpha virt. eigenvalues --    2.94364   2.94881   2.95033   2.95426   2.95513
 Alpha virt. eigenvalues --    2.96005   2.96334   2.96493   2.96992   2.97136
 Alpha virt. eigenvalues --    2.97516   2.98249   2.98506   2.98635   2.98732
 Alpha virt. eigenvalues --    2.99294   2.99487   2.99768   2.99951   3.00530
 Alpha virt. eigenvalues --    3.00758   3.00924   3.01435   3.01626   3.01816
 Alpha virt. eigenvalues --    3.02454   3.02597   3.02842   3.03033   3.03360
 Alpha virt. eigenvalues --    3.03944   3.04538   3.04767   3.04868   3.04950
 Alpha virt. eigenvalues --    3.05624   3.05707   3.06077   3.06456   3.06653
 Alpha virt. eigenvalues --    3.06992   3.07121   3.07558   3.07839   3.08148
 Alpha virt. eigenvalues --    3.08272   3.08624   3.08961   3.09243   3.09672
 Alpha virt. eigenvalues --    3.09922   3.10306   3.10457   3.10799   3.11133
 Alpha virt. eigenvalues --    3.11377   3.11996   3.12368   3.12487   3.12875
 Alpha virt. eigenvalues --    3.13068   3.13201   3.13387   3.13757   3.13950
 Alpha virt. eigenvalues --    3.14311   3.14717   3.15053   3.15349   3.15613
 Alpha virt. eigenvalues --    3.15888   3.16138   3.16531   3.16648   3.17044
 Alpha virt. eigenvalues --    3.17298   3.17647   3.18441   3.18568   3.18639
 Alpha virt. eigenvalues --    3.18855   3.19234   3.19383   3.19715   3.19917
 Alpha virt. eigenvalues --    3.20021   3.20642   3.21027   3.21109   3.21621
 Alpha virt. eigenvalues --    3.21957   3.22031   3.22343   3.22551   3.22813
 Alpha virt. eigenvalues --    3.23310   3.23601   3.23754   3.24001   3.24379
 Alpha virt. eigenvalues --    3.24569   3.25134   3.25203   3.25477   3.25651
 Alpha virt. eigenvalues --    3.25927   3.26094   3.26369   3.26719   3.27089
 Alpha virt. eigenvalues --    3.27143   3.27450   3.27559   3.27735   3.28496
 Alpha virt. eigenvalues --    3.28833   3.28992   3.29165   3.29498   3.29770
 Alpha virt. eigenvalues --    3.30055   3.30373   3.30640   3.31181   3.31348
 Alpha virt. eigenvalues --    3.31447   3.31761   3.31910   3.32000   3.32412
 Alpha virt. eigenvalues --    3.32489   3.33235   3.33427   3.33827   3.33948
 Alpha virt. eigenvalues --    3.34085   3.34242   3.34515   3.34774   3.35001
 Alpha virt. eigenvalues --    3.35484   3.35685   3.35834   3.36272   3.36600
 Alpha virt. eigenvalues --    3.37018   3.37216   3.37451   3.37941   3.38036
 Alpha virt. eigenvalues --    3.38231   3.38777   3.38983   3.39223   3.39340
 Alpha virt. eigenvalues --    3.39484   3.40043   3.40229   3.40475   3.40652
 Alpha virt. eigenvalues --    3.40837   3.41243   3.41403   3.41659   3.42160
 Alpha virt. eigenvalues --    3.42701   3.42760   3.43126   3.43511   3.44103
 Alpha virt. eigenvalues --    3.44206   3.44502   3.44677   3.45010   3.45112
 Alpha virt. eigenvalues --    3.45531   3.45734   3.46194   3.46534   3.47100
 Alpha virt. eigenvalues --    3.47474   3.47658   3.47925   3.48183   3.48501
 Alpha virt. eigenvalues --    3.48999   3.49252   3.49442   3.49655   3.50110
 Alpha virt. eigenvalues --    3.50498   3.51061   3.51190   3.51433   3.51780
 Alpha virt. eigenvalues --    3.52319   3.52696   3.53116   3.53474   3.53701
 Alpha virt. eigenvalues --    3.54187   3.54469   3.55063   3.55236   3.55700
 Alpha virt. eigenvalues --    3.56121   3.56429   3.56791   3.57521   3.57772
 Alpha virt. eigenvalues --    3.58152   3.58475   3.58692   3.58763   3.59200
 Alpha virt. eigenvalues --    3.59289   3.59541   3.60527   3.60858   3.61547
 Alpha virt. eigenvalues --    3.61922   3.62130   3.62652   3.63100   3.63580
 Alpha virt. eigenvalues --    3.64005   3.64085   3.64713   3.64877   3.65083
 Alpha virt. eigenvalues --    3.65909   3.66056   3.66243   3.66514   3.66986
 Alpha virt. eigenvalues --    3.67575   3.67797   3.68198   3.68528   3.68962
 Alpha virt. eigenvalues --    3.69101   3.69897   3.70056   3.70758   3.71475
 Alpha virt. eigenvalues --    3.71599   3.71924   3.72095   3.72434   3.72568
 Alpha virt. eigenvalues --    3.73457   3.73717   3.73823   3.74117   3.74568
 Alpha virt. eigenvalues --    3.74693   3.75024   3.75219   3.75981   3.76439
 Alpha virt. eigenvalues --    3.76925   3.77757   3.77924   3.78467   3.79001
 Alpha virt. eigenvalues --    3.79368   3.79708   3.80026   3.80620   3.81768
 Alpha virt. eigenvalues --    3.82159   3.82614   3.82784   3.83403   3.83936
 Alpha virt. eigenvalues --    3.84429   3.84695   3.85109   3.85858   3.86269
 Alpha virt. eigenvalues --    3.86553   3.86982   3.87846   3.88170   3.88674
 Alpha virt. eigenvalues --    3.89230   3.89490   3.89988   3.90738   3.91468
 Alpha virt. eigenvalues --    3.91590   3.92375   3.92752   3.93180   3.93990
 Alpha virt. eigenvalues --    3.94274   3.94707   3.95014   3.95668   3.96516
 Alpha virt. eigenvalues --    3.96647   3.97635   3.97891   3.98234   3.98738
 Alpha virt. eigenvalues --    3.99153   3.99435   3.99688   4.00209   4.00599
 Alpha virt. eigenvalues --    4.02157   4.02336   4.02457   4.03174   4.03677
 Alpha virt. eigenvalues --    4.04727   4.04781   4.05382   4.06377   4.06558
 Alpha virt. eigenvalues --    4.07367   4.07959   4.09258   4.09348   4.10090
 Alpha virt. eigenvalues --    4.10430   4.11432   4.11942   4.12092   4.12626
 Alpha virt. eigenvalues --    4.13293   4.13823   4.14309   4.14612   4.14994
 Alpha virt. eigenvalues --    4.15427   4.15659   4.16405   4.16680   4.17499
 Alpha virt. eigenvalues --    4.17746   4.18323   4.18562   4.19145   4.19842
 Alpha virt. eigenvalues --    4.20182   4.20514   4.20989   4.21610   4.22455
 Alpha virt. eigenvalues --    4.22969   4.23275   4.23685   4.24425   4.24894
 Alpha virt. eigenvalues --    4.25464   4.25892   4.26576   4.26830   4.27339
 Alpha virt. eigenvalues --    4.27904   4.28240   4.29640   4.29868   4.30201
 Alpha virt. eigenvalues --    4.30572   4.30972   4.31566   4.31980   4.32231
 Alpha virt. eigenvalues --    4.33663   4.33963   4.34747   4.34795   4.35364
 Alpha virt. eigenvalues --    4.36074   4.36905   4.37280   4.37510   4.38157
 Alpha virt. eigenvalues --    4.38422   4.38932   4.39252   4.39915   4.40177
 Alpha virt. eigenvalues --    4.41077   4.41757   4.41991   4.43046   4.43345
 Alpha virt. eigenvalues --    4.43566   4.44240   4.44882   4.45469   4.45728
 Alpha virt. eigenvalues --    4.46473   4.46866   4.47695   4.47818   4.48070
 Alpha virt. eigenvalues --    4.48973   4.49310   4.49540   4.50173   4.50862
 Alpha virt. eigenvalues --    4.51250   4.52458   4.53151   4.53733   4.55026
 Alpha virt. eigenvalues --    4.56591   4.57385   4.57950   4.58354   4.59286
 Alpha virt. eigenvalues --    4.59639   4.60043   4.61084   4.61668   4.62778
 Alpha virt. eigenvalues --    4.63084   4.63459   4.64047   4.64128   4.64907
 Alpha virt. eigenvalues --    4.66148   4.66584   4.67334   4.67844   4.68245
 Alpha virt. eigenvalues --    4.68316   4.69621   4.69674   4.70035   4.71169
 Alpha virt. eigenvalues --    4.71895   4.72140   4.72905   4.73388   4.73734
 Alpha virt. eigenvalues --    4.74384   4.75066   4.75764   4.76417   4.76518
 Alpha virt. eigenvalues --    4.77278   4.78073   4.78816   4.78984   4.79461
 Alpha virt. eigenvalues --    4.79784   4.80390   4.80920   4.82051   4.83401
 Alpha virt. eigenvalues --    4.83537   4.84429   4.84764   4.85450   4.86319
 Alpha virt. eigenvalues --    4.87018   4.87711   4.88372   4.88952   4.89488
 Alpha virt. eigenvalues --    4.89692   4.90321   4.91194   4.91980   4.92421
 Alpha virt. eigenvalues --    4.93158   4.93577   4.93619   4.95772   4.96107
 Alpha virt. eigenvalues --    4.96926   4.97909   4.98702   4.98934   4.99368
 Alpha virt. eigenvalues --    5.00511   5.01132   5.02719   5.03436   5.04008
 Alpha virt. eigenvalues --    5.04473   5.05364   5.05930   5.06214   5.06575
 Alpha virt. eigenvalues --    5.06988   5.07539   5.08409   5.09412   5.09904
 Alpha virt. eigenvalues --    5.10734   5.11975   5.13137   5.14578   5.15268
 Alpha virt. eigenvalues --    5.16977   5.17540   5.18009   5.18369   5.19093
 Alpha virt. eigenvalues --    5.19967   5.20237   5.20570   5.21523   5.21739
 Alpha virt. eigenvalues --    5.22735   5.23369   5.23691   5.24557   5.25238
 Alpha virt. eigenvalues --    5.25969   5.26487   5.26940   5.28110   5.29036
 Alpha virt. eigenvalues --    5.30406   5.30766   5.31406   5.32080   5.33104
 Alpha virt. eigenvalues --    5.34235   5.34694   5.36672   5.38175   5.39470
 Alpha virt. eigenvalues --    5.39513   5.39847   5.40039   5.40273   5.41779
 Alpha virt. eigenvalues --    5.42703   5.44952   5.46021   5.46895   5.48373
 Alpha virt. eigenvalues --    5.48596   5.49887   5.50591   5.50723   5.52026
 Alpha virt. eigenvalues --    5.52353   5.53369   5.57560   5.58185   5.58324
 Alpha virt. eigenvalues --    5.59976   5.60760   5.61568   5.62061   5.62670
 Alpha virt. eigenvalues --    5.64864   5.65310   5.65508   5.66251   5.66655
 Alpha virt. eigenvalues --    5.68314   5.70927   5.72636   5.74627   5.76250
 Alpha virt. eigenvalues --    5.77332   5.77725   5.78478   5.78898   5.80119
 Alpha virt. eigenvalues --    5.82484   5.84751   5.85810   5.88693   5.90232
 Alpha virt. eigenvalues --    5.90752   5.92767   5.94189   5.97760   5.98220
 Alpha virt. eigenvalues --    5.99806   6.00556   6.01271   6.04423   6.05423
 Alpha virt. eigenvalues --    6.11657   6.12002   6.12273   6.14175   6.15803
 Alpha virt. eigenvalues --    6.16111   6.17538   6.18537   6.23063   6.25983
 Alpha virt. eigenvalues --    6.28031   6.30443   6.31336   6.32477   6.33404
 Alpha virt. eigenvalues --    6.37117   6.37944   6.39738   6.42409   6.42688
 Alpha virt. eigenvalues --    6.44570   6.45236   6.47555   6.48002   6.48174
 Alpha virt. eigenvalues --    6.51401   6.53119   6.54172   6.54708   6.60713
 Alpha virt. eigenvalues --    6.64135   6.65644   6.72602   6.75365   6.77311
 Alpha virt. eigenvalues --    6.83214   6.88371   6.89709   6.92389   6.93498
 Alpha virt. eigenvalues --    6.95711   7.01804   7.10462   7.12271   7.12359
 Alpha virt. eigenvalues --    7.15549   7.22688   7.27863   7.31179   7.32754
 Alpha virt. eigenvalues --    7.58888   8.78119  22.35206  22.43071  22.51145
 Alpha virt. eigenvalues --   22.54732  22.55412  22.59645  22.61478  22.62670
 Alpha virt. eigenvalues --   22.63951  22.73086  22.75959  22.77197  22.79978
 Alpha virt. eigenvalues --   22.89699  22.90575  22.96862  22.98685  22.99604
 Alpha virt. eigenvalues --   23.00538  23.08184  23.10157  23.15163  23.20246
 Alpha virt. eigenvalues --   23.24329  23.27995  23.32117  23.34156  23.40746
 Alpha virt. eigenvalues --   23.45389  23.51228  23.53344  23.57318  23.58826
 Alpha virt. eigenvalues --   23.61606  23.75684  23.80783  23.81948  23.92849
 Alpha virt. eigenvalues --   32.47341  32.74296  32.96452  33.00064  33.04271
 Alpha virt. eigenvalues --   33.20874  43.91317  43.93875  43.95197  43.96809
 Alpha virt. eigenvalues --   44.10588  44.26113
          Condensed to atoms (all electrons):
 Mulliken charges:
               1
     1  C   -0.382244
     2  C    0.148032
     3  N   -0.226479
     4  C   -0.213447
     5  C    0.015298
     6  N    0.029863
     7  Fe  -0.387419
     8  C   -0.505926
     9  C   -0.474409
    10  C   -0.475181
    11  C   -0.493734
    12  N   -0.012419
    13  C    0.319604
    14  C    0.024852
    15  C   -0.049351
    16  C    0.293982
    17  C   -0.424504
    18  C   -0.427280
    19  C   -0.178617
    20  C    0.294993
    21  O   -0.377790
    22  O   -0.287194
    23  N    0.064257
    24  C    0.226221
    25  C   -0.091765
    26  C    0.031994
    27  C    0.259735
    28  C   -0.369156
    29  C   -0.226335
    30  C   -0.312538
    31  N   -0.013895
    32  C    0.306445
    33  C   -0.124792
    34  C    0.043084
    35  C    0.274805
    36  C   -0.363536
    37  C   -0.094355
    38  C   -0.433558
    39  N    0.022864
    40  C    0.280300
    41  C   -0.100409
    42  C   -0.003024
    43  C    0.276908
    44  C   -0.384521
    45  C   -0.359463
    46  C   -0.133363
    47  C    0.273241
    48  O   -0.359691
    49  O   -0.362959
    50  O    0.068767
    51  O   -0.178910
    52  H    0.146576
    53  H    0.201428
    54  H    0.244756
    55  H    0.148959
    56  H    0.147541
    57  H    0.130787
    58  H    0.123436
    59  H    0.151193
    60  H    0.133814
    61  H    0.126429
    62  H    0.137456
    63  H    0.143740
    64  H    0.106295
    65  H    0.133000
    66  H    0.151949
    67  H    0.133628
    68  H    0.100132
    69  H    0.140564
    70  H    0.129813
    71  H    0.143401
    72  H    0.146497
    73  H    0.146512
    74  H    0.119356
    75  H    0.089707
    76  H    0.147021
    77  H    0.135744
    78  H    0.135607
    79  H    0.056252
    80  H    0.139870
    81  H    0.100587
    82  H    0.138656
    83  H    0.121243
    84  H    0.355150
    85  H    0.135350
    86  H    0.144495
    87  H    0.135441
    88  H    0.120210
    89  H    0.330422
 Sum of Mulliken charges =  -0.00000
 Mulliken charges with hydrogens summed into heavy atoms:
               1
     1  C    0.045043
     2  C    0.148032
     3  N    0.018277
     4  C   -0.066871
     5  C    0.216726
     6  N    0.029863
     7  Fe  -0.387419
     8  C   -0.449673
     9  C   -0.368114
    10  C   -0.375049
    11  C   -0.404027
    12  N   -0.012419
    13  C    0.319604
    14  C    0.024852
    15  C   -0.049351
    16  C    0.293982
    17  C   -0.005927
    18  C   -0.147434
    19  C    0.077034
    20  C    0.294993
    21  O   -0.377790
    22  O    0.043229
    23  N    0.064257
    24  C    0.226221
    25  C   -0.091765
    26  C    0.031994
    27  C    0.259735
    28  C    0.038470
    29  C   -0.102899
    30  C   -0.027531
    31  N   -0.013895
    32  C    0.306445
    33  C   -0.124792
    34  C    0.043084
    35  C    0.274805
    36  C    0.050242
    37  C    0.025000
    38  C   -0.140550
    39  N    0.022864
    40  C    0.280300
    41  C   -0.100409
    42  C   -0.003024
    43  C    0.276908
    44  C    0.033851
    45  C   -0.119006
    46  C    0.126536
    47  C    0.273241
    48  O   -0.359691
    49  O   -0.007809
    50  O    0.068767
    51  O   -0.178910
 Electronic spatial extent (au):  <R**2>=          30325.6560
 Charge=             -0.0000 electrons
 Dipole moment (field-independent basis, Debye):
    X=              1.0101    Y=             -4.6941    Z=              1.9609  Tot=              5.1865
 Quadrupole moment (field-independent basis, Debye-Ang):
   XX=           -285.0342   YY=           -298.8865   ZZ=           -285.6542
   XY=            -19.2407   XZ=            -23.2630   YZ=             12.1602
 Traceless Quadrupole moment (field-independent basis, Debye-Ang):
   XX=              4.8241   YY=             -9.0282   ZZ=              4.2041
   XY=            -19.2407   XZ=            -23.2630   YZ=             12.1602
 Octapole moment (field-independent basis, Debye-Ang**2):
  XXX=            -14.7206  YYY=           -122.6370  ZZZ=             69.7005  XYY=            -39.4682
  XXY=           -197.0210  XXZ=           -107.5254  XZZ=             48.3460  YZZ=              3.0617
  YYZ=            -38.9399  XYZ=             12.4011
 Hexadecapole moment (field-independent basis, Debye-Ang**3):
 XXXX=         -21022.0042 YYYY=         -14944.6207 ZZZZ=          -4462.3251 XXXY=          -1358.8471
 XXXZ=           -739.9648 YYYX=           -271.6747 YYYZ=            215.4243 ZZZX=           -558.6541
 ZZZY=           -205.6326 XXYY=          -6373.6387 XXZZ=          -3868.7051 YYZZ=          -3317.6672
 XXYZ=             81.1899 YYXZ=             -1.8686 ZZXY=            244.3222
 N-N= 7.976575289437D+03 E-N=-2.420846397398D+04  KE= 3.501201930267D+03
 ******************************Gaussian NBO Version 3.1******************************
             N A T U R A L   A T O M I C   O R B I T A L   A N D
          N A T U R A L   B O N D   O R B I T A L   A N A L Y S I S
 ******************************Gaussian NBO Version 3.1******************************
       /RESON  / : Allow strongly delocalized NBO set

 Analyzing the SCF density

 Job title: 1a6m_II_S_nbo                                                   

 Storage needed:   9995662 in NPA,  13306751 in NBO (2147442797 available)
 GSVD:  LWork=     1464745 too small for GESVD, short by     2243765 words or     2243765 for optimal perf.


 NATURAL POPULATIONS:  Natural atomic orbital occupancies 
                                                          
   NAO  Atom  No  lang   Type(AO)    Occupancy      Energy
 ----------------------------------------------------------
     1    C    1  S      Cor( 1S)     1.99938     -10.07717
     2    C    1  S      Val( 2S)     1.09839      -0.30894
     3    C    1  S      Ryd( 3S)     0.00073       1.00873
     4    C    1  S      Ryd( 4S)     0.00011       1.80103
     5    C    1  S      Ryd( 5S)     0.00000      21.67783
     6    C    1  px     Val( 2p)     1.21987      -0.12426
     7    C    1  px     Ryd( 3p)     0.00036       0.71691
     8    C    1  px     Ryd( 4p)     0.00006       1.42915
     9    C    1  py     Val( 2p)     1.23363      -0.12601
    10    C    1  py     Ryd( 3p)     0.00087       0.74001
    11    C    1  py     Ryd( 4p)     0.00007       1.39662
    12    C    1  pz     Val( 2p)     1.08398      -0.11778
    13    C    1  pz     Ryd( 3p)     0.00045       0.66374
    14    C    1  pz     Ryd( 4p)     0.00031       1.35840
    15    C    1  dxy    Ryd( 4d)     0.00045       2.72711
    16    C    1  dxy    Ryd( 3d)     0.00014       2.34101
    17    C    1  dxz    Ryd( 4d)     0.00070       2.94950
    18    C    1  dxz    Ryd( 3d)     0.00007       2.20320
    19    C    1  dyz    Ryd( 4d)     0.00038       2.74234
    20    C    1  dyz    Ryd( 3d)     0.00010       2.37785
    21    C    1  dx2y2  Ryd( 4d)     0.00055       2.83618
    22    C    1  dx2y2  Ryd( 3d)     0.00009       2.28371
    23    C    1  dz2    Ryd( 4d)     0.00083       3.30301
    24    C    1  dz2    Ryd( 3d)     0.00003       2.48954
    25    C    1  f(0)   Ryd( 4f)     0.00008       3.53557
    26    C    1  f(C1)  Ryd( 4f)     0.00008       3.48253
    27    C    1  f(S1)  Ryd( 4f)     0.00006       3.44889
    28    C    1  f(C2)  Ryd( 4f)     0.00003       3.36599
    29    C    1  f(S2)  Ryd( 4f)     0.00002       3.35804
    30    C    1  f(C3)  Ryd( 4f)     0.00001       3.19173
    31    C    1  f(S3)  Ryd( 4f)     0.00011       3.63907

    32    C    2  S      Cor( 1S)     1.99920     -10.12486
    33    C    2  S      Val( 2S)     0.90028      -0.21770
    34    C    2  S      Ryd( 3S)     0.00116       1.34973
    35    C    2  S      Ryd( 4S)     0.00005       1.63478
    36    C    2  S      Ryd( 5S)     0.00000      21.47764
    37    C    2  px     Val( 2p)     0.98736      -0.10008
    38    C    2  px     Ryd( 3p)     0.00278       0.91336
    39    C    2  px     Ryd( 4p)     0.00031       1.33437
    40    C    2  py     Val( 2p)     0.92326      -0.07513
    41    C    2  py     Ryd( 3p)     0.00315       1.02460
    42    C    2  py     Ryd( 4p)     0.00020       1.46853
    43    C    2  pz     Val( 2p)     1.06273      -0.07603
    44    C    2  pz     Ryd( 3p)     0.00303       1.47014
    45    C    2  pz     Ryd( 4p)     0.00027       1.80897
    46    C    2  dxy    Ryd( 4d)     0.00039       3.82201
    47    C    2  dxy    Ryd( 3d)     0.00017       2.74727
    48    C    2  dxz    Ryd( 4d)     0.00059       3.19561
    49    C    2  dxz    Ryd( 3d)     0.00010       2.91881
    50    C    2  dyz    Ryd( 4d)     0.00069       3.48793
    51    C    2  dyz    Ryd( 3d)     0.00011       2.98845
    52    C    2  dx2y2  Ryd( 4d)     0.00073       3.09104
    53    C    2  dx2y2  Ryd( 3d)     0.00016       2.34547
    54    C    2  dz2    Ryd( 3d)     0.00076       3.63203
    55    C    2  dz2    Ryd( 4d)     0.00008       3.75038
    56    C    2  f(0)   Ryd( 4f)     0.00016       4.04704
    57    C    2  f(C1)  Ryd( 4f)     0.00021       3.74803
    58    C    2  f(S1)  Ryd( 4f)     0.00013       4.01474
    59    C    2  f(C2)  Ryd( 4f)     0.00004       3.46279
    60    C    2  f(S2)  Ryd( 4f)     0.00008       3.72797
    61    C    2  f(C3)  Ryd( 4f)     0.00005       3.44845
    62    C    2  f(S3)  Ryd( 4f)     0.00009       3.38019

    63    N    3  S      Cor( 1S)     1.99939     -14.24931
    64    N    3  S      Val( 2S)     1.24455      -0.58701
    65    N    3  S      Ryd( 3S)     0.00069       1.90550
    66    N    3  S      Ryd( 4S)     0.00009       2.43716
    67    N    3  S      Ryd( 5S)     0.00000      30.59982
    68    N    3  px     Val( 2p)     1.48314      -0.27691
    69    N    3  px     Ryd( 3p)     0.00231       0.76637
    70    N    3  px     Ryd( 4p)     0.00026       2.32667
    71    N    3  py     Val( 2p)     1.42040      -0.27480
    72    N    3  py     Ryd( 3p)     0.00215       1.02418
    73    N    3  py     Ryd( 4p)     0.00029       2.45634
    74    N    3  pz     Val( 2p)     1.32213      -0.26653
    75    N    3  pz     Ryd( 3p)     0.00225       1.04356
    76    N    3  pz     Ryd( 4p)     0.00032       2.98531
    77    N    3  dxy    Ryd( 3d)     0.00265       1.56573
    78    N    3  dxy    Ryd( 4d)     0.00004       4.74568
    79    N    3  dxz    Ryd( 3d)     0.00108       1.41963
    80    N    3  dxz    Ryd( 4d)     0.00015       4.60686
    81    N    3  dyz    Ryd( 3d)     0.00151       1.61672
    82    N    3  dyz    Ryd( 4d)     0.00022       4.80358
    83    N    3  dx2y2  Ryd( 3d)     0.00111       1.30417
    84    N    3  dx2y2  Ryd( 4d)     0.00008       4.47702
    85    N    3  dz2    Ryd( 3d)     0.00335       1.68638
    86    N    3  dz2    Ryd( 4d)     0.00007       4.91255
    87    N    3  f(0)   Ryd( 4f)     0.00020       5.00904
    88    N    3  f(C1)  Ryd( 4f)     0.00019       4.61918
    89    N    3  f(S1)  Ryd( 4f)     0.00015       4.78430
    90    N    3  f(C2)  Ryd( 4f)     0.00007       4.42503
    91    N    3  f(S2)  Ryd( 4f)     0.00019       4.69199
    92    N    3  f(C3)  Ryd( 4f)     0.00018       4.58120
    93    N    3  f(S3)  Ryd( 4f)     0.00029       4.37181

    94    C    4  S      Cor( 1S)     1.99900     -10.09809
    95    C    4  S      Val( 2S)     0.95265      -0.20952
    96    C    4  S      Ryd( 4S)     0.00136       1.45629
    97    C    4  S      Ryd( 3S)     0.00012       1.37971
    98    C    4  S      Ryd( 5S)     0.00000      21.91624
    99    C    4  px     Val( 2p)     1.07918      -0.09655
   100    C    4  px     Ryd( 3p)     0.00257       0.80804
   101    C    4  px     Ryd( 4p)     0.00063       1.41890
   102    C    4  py     Val( 2p)     1.12069      -0.07632
   103    C    4  py     Ryd( 3p)     0.00240       1.01594
   104    C    4  py     Ryd( 4p)     0.00082       1.51561
   105    C    4  pz     Val( 2p)     0.91438      -0.05101
   106    C    4  pz     Ryd( 3p)     0.00264       1.00441
   107    C    4  pz     Ryd( 4p)     0.00079       1.69225
   108    C    4  dxy    Ryd( 3d)     0.00104       1.59752
   109    C    4  dxy    Ryd( 4d)     0.00012       3.49782
   110    C    4  dxz    Ryd( 3d)     0.00065       1.49637
   111    C    4  dxz    Ryd( 4d)     0.00030       3.33200
   112    C    4  dyz    Ryd( 3d)     0.00146       1.67422
   113    C    4  dyz    Ryd( 4d)     0.00034       3.53401
   114    C    4  dx2y2  Ryd( 3d)     0.00110       1.32407
   115    C    4  dx2y2  Ryd( 4d)     0.00007       3.04522
   116    C    4  dz2    Ryd( 3d)     0.00068       1.73423
   117    C    4  dz2    Ryd( 4d)     0.00054       3.54202
   118    C    4  f(0)   Ryd( 4f)     0.00005       3.87195
   119    C    4  f(C1)  Ryd( 4f)     0.00010       3.64932
   120    C    4  f(S1)  Ryd( 4f)     0.00010       4.09422
   121    C    4  f(C2)  Ryd( 4f)     0.00005       3.63236
   122    C    4  f(S2)  Ryd( 4f)     0.00009       3.74569
   123    C    4  f(C3)  Ryd( 4f)     0.00012       3.76053
   124    C    4  f(S3)  Ryd( 4f)     0.00017       3.31276

   125    C    5  S      Cor( 1S)     1.99930     -10.13779
   126    C    5  S      Val( 2S)     0.88693      -0.17917
   127    C    5  S      Ryd( 3S)     0.00222       1.40977
   128    C    5  S      Ryd( 4S)     0.00007       1.44405
   129    C    5  S      Ryd( 5S)     0.00001      21.74991
   130    C    5  px     Val( 2p)     1.00293      -0.10830
   131    C    5  px     Ryd( 3p)     0.00314       0.98422
   132    C    5  px     Ryd( 4p)     0.00088       1.25259
   133    C    5  py     Val( 2p)     1.01715      -0.08470
   134    C    5  py     Ryd( 3p)     0.00406       1.09068
   135    C    5  py     Ryd( 4p)     0.00080       1.31938
   136    C    5  pz     Val( 2p)     0.85587      -0.03873
   137    C    5  pz     Ryd( 3p)     0.00352       1.24447
   138    C    5  pz     Ryd( 4p)     0.00094       1.46580
   139    C    5  dxy    Ryd( 4d)     0.00037       3.69608
   140    C    5  dxy    Ryd( 3d)     0.00021       2.52712
   141    C    5  dxz    Ryd( 4d)     0.00075       3.44572
   142    C    5  dxz    Ryd( 3d)     0.00013       2.53102
   143    C    5  dyz    Ryd( 4d)     0.00066       3.68419
   144    C    5  dyz    Ryd( 3d)     0.00016       2.66555
   145    C    5  dx2y2  Ryd( 4d)     0.00039       3.28217
   146    C    5  dx2y2  Ryd( 3d)     0.00022       2.21684
   147    C    5  dz2    Ryd( 4d)     0.00063       4.06574
   148    C    5  dz2    Ryd( 3d)     0.00019       2.92583
   149    C    5  f(0)   Ryd( 4f)     0.00009       3.86863
   150    C    5  f(C1)  Ryd( 4f)     0.00004       3.68789
   151    C    5  f(S1)  Ryd( 4f)     0.00004       4.02711
   152    C    5  f(C2)  Ryd( 4f)     0.00004       3.44481
   153    C    5  f(S2)  Ryd( 4f)     0.00013       3.89184
   154    C    5  f(C3)  Ryd( 4f)     0.00012       3.59319
   155    C    5  f(S3)  Ryd( 4f)     0.00009       3.37597

   156    N    6  S      Cor( 1S)     1.99929     -14.18629
   157    N    6  S      Val( 2S)     1.28423      -0.54442
   158    N    6  S      Ryd( 3S)     0.00461       1.53342
   159    N    6  S      Ryd( 4S)     0.00011       4.16178
   160    N    6  S      Ryd( 5S)     0.00000      31.43440
   161    N    6  px     Val( 2p)     1.28759      -0.20481
   162    N    6  px     Ryd( 3p)     0.00559       0.91828
   163    N    6  px     Ryd( 4p)     0.00012       2.86088
   164    N    6  py     Val( 2p)     1.27233      -0.20422
   165    N    6  py     Ryd( 3p)     0.00803       1.10924
   166    N    6  py     Ryd( 4p)     0.00012       3.28009
   167    N    6  pz     Val( 2p)     1.45716      -0.22874
   168    N    6  pz     Ryd( 3p)     0.01084       1.58665
   169    N    6  pz     Ryd( 4p)     0.00029       3.54300
   170    N    6  dxy    Ryd( 3d)     0.00321       1.62059
   171    N    6  dxy    Ryd( 4d)     0.00011       4.92065
   172    N    6  dxz    Ryd( 3d)     0.00413       1.61677
   173    N    6  dxz    Ryd( 4d)     0.00010       4.91040
   174    N    6  dyz    Ryd( 3d)     0.00441       1.75392
   175    N    6  dyz    Ryd( 4d)     0.00017       5.02574
   176    N    6  dx2y2  Ryd( 3d)     0.00132       1.41112
   177    N    6  dx2y2  Ryd( 4d)     0.00020       4.74804
   178    N    6  dz2    Ryd( 3d)     0.00236       1.64852
   179    N    6  dz2    Ryd( 4d)     0.00026       4.94069
   180    N    6  f(0)   Ryd( 4f)     0.00010       4.76838
   181    N    6  f(C1)  Ryd( 4f)     0.00006       4.55894
   182    N    6  f(S1)  Ryd( 4f)     0.00009       4.79439
   183    N    6  f(C2)  Ryd( 4f)     0.00006       4.64719
   184    N    6  f(S2)  Ryd( 4f)     0.00021       4.81367
   185    N    6  f(C3)  Ryd( 4f)     0.00015       4.65239
   186    N    6  f(S3)  Ryd( 4f)     0.00030       4.49421

   187   Fe    7  S      Cor( 1S)     2.00000    -249.89791
   188   Fe    7  S      Cor( 2S)     2.00000     -35.20495
   189   Fe    7  S      Cor( 3S)     1.99522      -4.78610
   190   Fe    7  S      Val( 4S)     0.26689       0.49506
   191   Fe    7  S      Ryd( 5S)     0.00159       0.90052
   192   Fe    7  S      Ryd( 6S)     0.00018       2.22678
   193   Fe    7  px     Cor( 2p)     2.00000     -25.88948
   194   Fe    7  px     Cor( 3p)     1.99846      -2.29855
   195   Fe    7  px     Val( 4p)     0.23221       0.53024
   196   Fe    7  px     Ryd( 5p)     0.00012       2.63271
   197   Fe    7  py     Cor( 2p)     2.00000     -25.88115
   198   Fe    7  py     Cor( 3p)     1.99844      -2.28556
   199   Fe    7  py     Val( 4p)     0.22733       0.52891
   200   Fe    7  py     Ryd( 5p)     0.00016       2.61557
   201   Fe    7  pz     Cor( 2p)     2.00000     -25.89184
   202   Fe    7  pz     Cor( 3p)     1.99871      -2.30440
   203   Fe    7  pz     Val( 4p)     0.22629       0.44366
   204   Fe    7  pz     Ryd( 5p)     0.00065       2.12239
   205   Fe    7  dxy    Val( 3d)     0.93691      -0.14443
   206   Fe    7  dxy    Ryd( 4d)     0.00580       1.64602
   207   Fe    7  dxy    Ryd( 5d)     0.00077       1.94024
   208   Fe    7  dxy    Ryd( 6d)     0.00017       2.55783
   209   Fe    7  dxz    Val( 3d)     1.44066      -0.20699
   210   Fe    7  dxz    Ryd( 4d)     0.00441       0.84898
   211   Fe    7  dxz    Ryd( 5d)     0.00036       1.20585
   212   Fe    7  dxz    Ryd( 6d)     0.00011       3.29834
   213   Fe    7  dyz    Val( 3d)     1.67874      -0.22558
   214   Fe    7  dyz    Ryd( 4d)     0.00998       0.96049
   215   Fe    7  dyz    Ryd( 5d)     0.00076       1.32977
   216   Fe    7  dyz    Ryd( 6d)     0.00023       3.25974
   217   Fe    7  dx2y2  Val( 3d)     1.82532      -0.22700
   218   Fe    7  dx2y2  Ryd( 4d)     0.00910       1.34169
   219   Fe    7  dx2y2  Ryd( 5d)     0.00050       1.47419
   220   Fe    7  dx2y2  Ryd( 6d)     0.00017       2.96795
   221   Fe    7  dz2    Val( 3d)     0.95805      -0.17518
   222   Fe    7  dz2    Ryd( 4d)     0.00758       1.41518
   223   Fe    7  dz2    Ryd( 5d)     0.00171       1.82611
   224   Fe    7  dz2    Ryd( 6d)     0.00043       2.88760
   225   Fe    7  f(0)   Ryd( 4f)     0.00010       4.33690
   226   Fe    7  f(C1)  Ryd( 4f)     0.00005       4.26769
   227   Fe    7  f(S1)  Ryd( 4f)     0.00007       4.30522
   228   Fe    7  f(C2)  Ryd( 4f)     0.00001       4.17593
   229   Fe    7  f(S2)  Ryd( 4f)     0.00004       4.23483
   230   Fe    7  f(C3)  Ryd( 4f)     0.00006       4.35449
   231   Fe    7  f(S3)  Ryd( 4f)     0.00005       4.35416

   232    C    8  S      Cor( 1S)     1.99893     -10.05485
   233    C    8  S      Val( 2S)     0.93578      -0.18692
   234    C    8  S      Ryd( 3S)     0.00093       1.70839
   235    C    8  S      Ryd( 4S)     0.00053       4.80671
   236    C    8  S      Ryd( 5S)     0.00003      15.39685
   237    C    8  px     Val( 2p)     1.16120      -0.05584
   238    C    8  px     Ryd( 3p)     0.00248       1.08281
   239    C    8  px     Ryd( 4p)     0.00042       2.13654
   240    C    8  py     Val( 2p)     1.06735      -0.05225
   241    C    8  py     Ryd( 3p)     0.00179       1.05269
   242    C    8  py     Ryd( 4p)     0.00044       2.10521
   243    C    8  pz     Val( 2p)     1.06828      -0.11415
   244    C    8  pz     Ryd( 3p)     0.00368       0.57123
   245    C    8  pz     Ryd( 4p)     0.00024       1.58207
   246    C    8  dxy    Ryd( 3d)     0.00199       2.20144
   247    C    8  dxy    Ryd( 4d)     0.00020       3.76710
   248    C    8  dxz    Ryd( 3d)     0.00043       1.45544
   249    C    8  dxz    Ryd( 4d)     0.00013       2.92524
   250    C    8  dyz    Ryd( 3d)     0.00091       1.68971
   251    C    8  dyz    Ryd( 4d)     0.00008       3.21990
   252    C    8  dx2y2  Ryd( 3d)     0.00109       2.40636
   253    C    8  dx2y2  Ryd( 4d)     0.00029       4.03900
   254    C    8  dz2    Ryd( 3d)     0.00127       1.82641
   255    C    8  dz2    Ryd( 4d)     0.00004       3.44306
   256    C    8  f(0)   Ryd( 4f)     0.00022       3.58853
   257    C    8  f(C1)  Ryd( 4f)     0.00009       3.74666
   258    C    8  f(S1)  Ryd( 4f)     0.00015       3.97142
   259    C    8  f(C2)  Ryd( 4f)     0.00002       3.62552
   260    C    8  f(S2)  Ryd( 4f)     0.00004       3.66088
   261    C    8  f(C3)  Ryd( 4f)     0.00011       4.43263
   262    C    8  f(S3)  Ryd( 4f)     0.00004       4.30009

   263    C    9  S      Cor( 1S)     1.99895     -10.05377
   264    C    9  S      Val( 2S)     0.94577      -0.18900
   265    C    9  S      Ryd( 3S)     0.00088       1.54959
   266    C    9  S      Ryd( 4S)     0.00001       1.63775
   267    C    9  S      Ryd( 5S)     0.00000      21.19533
   268    C    9  px     Val( 2p)     1.06052      -0.04413
   269    C    9  px     Ryd( 3p)     0.00154       1.05675
   270    C    9  px     Ryd( 4p)     0.00037       1.99122
   271    C    9  py     Val( 2p)     1.16339      -0.05671
   272    C    9  py     Ryd( 3p)     0.00231       0.98490
   273    C    9  py     Ryd( 4p)     0.00038       1.85769
   274    C    9  pz     Val( 2p)     1.04532      -0.10852
   275    C    9  pz     Ryd( 3p)     0.00322       0.57930
   276    C    9  pz     Ryd( 4p)     0.00024       1.47465
   277    C    9  dxy    Ryd( 3d)     0.00207       2.17152
   278    C    9  dxy    Ryd( 4d)     0.00018       3.68759
   279    C    9  dxz    Ryd( 3d)     0.00084       1.65584
   280    C    9  dxz    Ryd( 4d)     0.00010       3.07970
   281    C    9  dyz    Ryd( 3d)     0.00048       1.55238
   282    C    9  dyz    Ryd( 4d)     0.00007       2.96296
   283    C    9  dx2y2  Ryd( 3d)     0.00111       2.38245
   284    C    9  dx2y2  Ryd( 4d)     0.00025       4.02711
   285    C    9  dz2    Ryd( 3d)     0.00117       1.81307
   286    C    9  dz2    Ryd( 4d)     0.00005       3.40241
   287    C    9  f(0)   Ryd( 4f)     0.00022       3.56223
   288    C    9  f(C1)  Ryd( 4f)     0.00009       4.07575
   289    C    9  f(S1)  Ryd( 4f)     0.00012       3.56637
   290    C    9  f(C2)  Ryd( 4f)     0.00004       3.62285
   291    C    9  f(S2)  Ryd( 4f)     0.00003       3.62745
   292    C    9  f(C3)  Ryd( 4f)     0.00005       4.29147
   293    C    9  f(S3)  Ryd( 4f)     0.00011       4.40955

   294    C   10  S      Cor( 1S)     1.99902     -10.05605
   295    C   10  S      Val( 2S)     0.95352      -0.19404
   296    C   10  S      Ryd( 3S)     0.00083       1.55335
   297    C   10  S      Ryd( 4S)     0.00001       1.64139
   298    C   10  S      Ryd( 5S)     0.00000      21.40028
   299    C   10  px     Val( 2p)     1.16849      -0.04869
   300    C   10  px     Ryd( 3p)     0.00213       0.99565
   301    C   10  px     Ryd( 4p)     0.00039       1.91203
   302    C   10  py     Val( 2p)     1.05046      -0.04088
   303    C   10  py     Ryd( 3p)     0.00162       1.02343
   304    C   10  py     Ryd( 4p)     0.00039       1.92449
   305    C   10  pz     Val( 2p)     1.03914      -0.10633
   306    C   10  pz     Ryd( 3p)     0.00328       0.55757
   307    C   10  pz     Ryd( 4p)     0.00023       1.48448
   308    C   10  dxy    Ryd( 3d)     0.00188       2.20714
   309    C   10  dxy    Ryd( 4d)     0.00015       3.71802
   310    C   10  dxz    Ryd( 3d)     0.00040       1.49343
   311    C   10  dxz    Ryd( 4d)     0.00010       2.85338
   312    C   10  dyz    Ryd( 3d)     0.00071       1.70822
   313    C   10  dyz    Ryd( 4d)     0.00013       3.14619
   314    C   10  dx2y2  Ryd( 3d)     0.00109       2.41785
   315    C   10  dx2y2  Ryd( 4d)     0.00024       4.00796
   316    C   10  dz2    Ryd( 3d)     0.00118       1.87611
   317    C   10  dz2    Ryd( 4d)     0.00005       3.43297
   318    C   10  f(0)   Ryd( 4f)     0.00021       3.52267
   319    C   10  f(C1)  Ryd( 4f)     0.00009       3.73665
   320    C   10  f(S1)  Ryd( 4f)     0.00013       3.94854
   321    C   10  f(C2)  Ryd( 4f)     0.00002       3.58699
   322    C   10  f(S2)  Ryd( 4f)     0.00003       3.60825
   323    C   10  f(C3)  Ryd( 4f)     0.00012       4.40862
   324    C   10  f(S3)  Ryd( 4f)     0.00005       4.26807

   325    C   11  S      Cor( 1S)     1.99901     -10.05062
[...]
  1726. BD*(   1)Fe   7 - N  23          0.18251     0.31282  1728(g),180(g),179(g)
                                                    1725(g),769(g),1727(g)
                                                    976(v),770(g),482(v),1185(v)
                                                    483(v),325(r),481(v),326(r)
                                                    977(v),1474(r),324(r),327(r)
                                                    1766(g),1767(g),1472(r)
                                                    1823(r),1471(r),328(r)
                                                    1469(r),1723(r),331(r)
                                                    1478(r),1473(r),1526(r)
  1727. BD*(   1)Fe   7 - N  31          0.09223     0.37009   
  1728. BD*(   1)Fe   7 - N  39          0.16096     0.31433  1726(g),180(g),179(g)
                                                    1727(g),1185(g),1725(g)
                                                    482(v),326(r),975(v),1186(g)
                                                    769(v),977(v),324(r),483(v)
                                                    481(v),1474(r),1801(g)
                                                    976(v),770(v),327(r),1472(r)
                                                    328(r),1723(r),1823(r)
                                                    331(r),1476(r)
  1729. BD*(   1) C   8 - C  13          0.02193     0.56674   
  1730. BD*(   2) C   8 - C  13          0.44072     0.03738  1802(v),1749(v),38(v),377(g)
                                                    1735(r),509(g),1724(r)
  1731. BD*(   1) C   8 - C  43          0.02122     0.59782   
  1732. BD*(   1) C   8 - H  79          0.01663     0.43163   
  1733. BD*(   1) C   9 - C  16          0.02091     0.59464   
  1734. BD*(   1) C   9 - C  24          0.01925     0.56277   
  1735. BD*(   2) C   9 - C  24          0.40377     0.04062  38(v),1771(v),1768(v),403(g)
                                                    1739(r),1730(r),795(g)
                                                    797(g)
  1736. BD*(   1) C   9 - H  64          0.01408     0.44442   
  1737. BD*(   1) C  10 - C  27          0.02124     0.55780   
  1738. BD*(   1) C  10 - C  32          0.01992     0.56954   
  1739. BD*(   2) C  10 - C  32          0.40989     0.04283  1768(v),1788(v),1785(v)
                                                    1779(r),429(g),1735(r)
                                                    1005(g),1743(r),1003(g)
                                                    1796(r)
  1740. BD*(   1) C  10 - H  68          0.01226     0.44782   
  1741. BD*(   1) C  11 - C  35          0.02156     0.56833   
  1742. BD*(   1) C  11 - C  40          0.02181     0.58933   
  1743. BD*(   2) C  11 - C  40          0.40639     0.05012  1805(v),1785(v),1802(v)
                                                    455(g),1796(r),1739(r)
  1744. BD*(   1) C  11 - H  75          0.01368     0.45017   
  1745. BD*(   1) N  12 - C  13          0.02500     0.48873   
  1746. BD*(   1) N  12 - C  16          0.02884     0.46451   
  1747. BD*(   1) C  13 - C  14          0.03518     0.46112   
  1748. BD*(   1) C  14 - C  15          0.02258     0.58986   
  1749. BD*(   2) C  14 - C  15          0.27289     0.05678  1730(v),38(v),1756(v)
                                                    1754(v),1757(v),1753(v)
                                                    1763(r)
  1750. BD*(   1) C  14 - C  18          0.02313     0.41201   
  1751. BD*(   1) C  15 - C  16          0.03134     0.51896   
  1752. BD*(   1) C  15 - C  17          0.01828     0.38662   
  1753. BD*(   1) C  17 - H  65          0.00702     0.40112   
  1754. BD*(   1) C  17 - H  66          0.01019     0.40010   
  1755. BD*(   1) C  17 - H  67          0.00644     0.40571   
  1756. BD*(   1) C  18 - C  19          0.02198     0.30381   
  1757. BD*(   1) C  18 - H  85          0.01628     0.39547   
  1758. BD*(   1) C  18 - H  86          0.01522     0.38270   
  1759. BD*(   1) C  19 - C  20          0.07207     0.34850   
  1760. BD*(   1) C  19 - H  87          0.01181     0.37590   
  1761. BD*(   1) C  19 - H  88          0.01099     0.39012   
  1762. BD*(   1) C  20 - O  21          0.04597     0.52152   
  1763. BD*(   2) C  20 - O  21          0.20764     0.03353  1762(g),1756(v),1760(v)
                                                    1765(v),696(g)
  1764. BD*(   1) C  20 - O  22          0.07936     0.44494   
  1765. BD*(   1) O  22 - H  89          0.01300     0.37267   
  1766. BD*(   1) N  23 - C  24          0.02660     0.45789   
  1767. BD*(   1) N  23 - C  27          0.02430     0.51183   
  1768. BD*(   2) N  23 - C  27          0.57982     0.00838  1739(v),1735(v),1771(v)
                                                    1723(r),873(g),179(v),768(g)
                                                    181(v),429(v),1822(r)
  1769. BD*(   1) C  24 - C  25          0.03396     0.45795   
  1770. BD*(   1) C  25 - C  26          0.02134     0.64593   
  1771. BD*(   2) C  25 - C  26          0.25330     0.07367  1735(v),1779(v),1768(v)
                                                    1776(v),1780(v),1775(v)
  1772. BD*(   1) C  25 - C  28          0.01814     0.40635   
  1773. BD*(   1) C  26 - C  27          0.03700     0.49548   
  1774. BD*(   1) C  26 - C  29          0.02795     0.41594   
  1775. BD*(   1) C  28 - H  61          0.00661     0.40811   
  1776. BD*(   1) C  28 - H  62          0.01082     0.40741   
  1777. BD*(   1) C  28 - H  63          0.00826     0.42384   
  1778. BD*(   1) C  29 - C  30          0.00508     0.58995   
  1779. BD*(   2) C  29 - C  30          0.06657     0.04243   
  1780. BD*(   1) C  29 - H  58          0.01851     0.44208   
  1781. BD*(   1) C  30 - H  59          0.00853     0.44048   
  1782. BD*(   1) C  30 - H  60          0.00836     0.44183   
  1783. BD*(   1) N  31 - C  32          0.02794     0.46864   
  1784. BD*(   1) N  31 - C  35          0.02509     0.52759   
  1785. BD*(   2) N  31 - C  35          0.55890     0.01290  1743(v),1739(v),1788(v)
                                                    1081(g),975(g),181(v),455(v)
                                                    1717(r)
  1786. BD*(   1) C  32 - C  33          0.03308     0.49716   
  1787. BD*(   1) C  33 - C  34          0.02175     0.63560   
  1788. BD*(   2) C  33 - C  34          0.32408     0.06800  1796(v),1739(v),1785(v)
                                                    1792(v),1055(g),1793(v)
  1789. BD*(   1) C  33 - C  36          0.01731     0.40965   
  1790. BD*(   1) C  34 - C  35          0.03352     0.49254   
  1791. BD*(   1) C  34 - C  37          0.02982     0.42992   
  1792. BD*(   1) C  36 - H  69          0.01091     0.41145   
  1793. BD*(   1) C  36 - H  70          0.00592     0.41118   
  1794. BD*(   1) C  36 - H  71          0.00826     0.42533   
  1795. BD*(   1) C  37 - C  38          0.00636     0.67918   
  1796. BD*(   2) C  37 - C  38          0.16003     0.04105  1788(v),1797(g),1799(g)
                                                    1798(g),1791(g)
  1797. BD*(   1) C  37 - H  74          0.02270     0.42570   
  1798. BD*(   1) C  38 - H  72          0.00962     0.43019   
  1799. BD*(   1) C  38 - H  73          0.01023     0.42693   
  1800. BD*(   1) N  39 - C  40          0.02603     0.52070   
  1801. BD*(   1) N  39 - C  43          0.02681     0.49160   
  1802. BD*(   2) N  39 - C  43          0.63672     0.00349  1730(v),1805(v),1743(v)
                                                    1289(g),1723(r),179(v)
                                                    181(v),377(v),1183(g)
  1803. BD*(   1) C  40 - C  41          0.03307     0.51960   
  1804. BD*(   1) C  41 - C  42          0.02169     0.58278   
  1805. BD*(   2) C  41 - C  42          0.25550     0.05952  1743(v),1802(v),1812(v)
                                                    1809(v)
  1806. BD*(   1) C  41 - C  44          0.01676     0.40172   
  1807. BD*(   1) C  42 - C  43          0.03325     0.49504   
  1808. BD*(   1) C  42 - C  45          0.02178     0.40181   
  1809. BD*(   1) C  44 - H  76          0.01056     0.40678   
  1810. BD*(   1) C  44 - H  77          0.00714     0.40888   
  1811. BD*(   1) C  44 - H  78          0.00656     0.41213   
  1812. BD*(   1) C  45 - C  46          0.01829     0.31697   
  1813. BD*(   1) C  45 - H  80          0.01429     0.41006   
  1814. BD*(   1) C  45 - H  81          0.01432     0.39528   
  1815. BD*(   1) C  46 - C  47          0.06584     0.36091   
  1816. BD*(   1) C  46 - H  82          0.01003     0.39388   
  1817. BD*(   1) C  46 - H  83          0.01167     0.39302   
  1818. BD*(   1) C  47 - O  48          0.04059     0.53933   
  1819. BD*(   2) C  47 - O  48          0.19125     0.00302  1821(v),1812(v),1818(g)
                                                    1816(v)
  1820. BD*(   1) C  47 - O  49          0.07417     0.47250   
  1821. BD*(   1) O  49 - H  84          0.01304     0.37746   
       -------------------------------
              Total Lewis  313.32945  ( 97.2233%)
        Valence non-Lewis    8.29872  (  2.5750%)
        Rydberg non-Lewis    0.65011  (  0.2017%)
       -------------------------------
            Total unit  2  322.27828  (100.0000%)
           Charge unit  2   -0.27828

 Molecular unit  3  (O2)
   114. BD (   1) O  50 - O  51          1.99476    -0.45773  179(r),1822(g),353(r)
                                                    1728(r),1726(r),771(r)
                                                    367(r),326(r),352(r),1727(r)
                                                    1785(r),350(r),1187(r)
                                                    1802(r)
   115. BD (   2) O  50 - O  51          1.99186    -1.01138  181(r),351(r),180(r),356(r)
                                                    352(r),355(r),1727(r)
                                                    1728(r),327(r),1726(r)
                                                    325(r),364(r),481(r),366(r)
                                                    358(r),486(r),767(r),483(r)
   173. CR (   1) O  50                  1.99960   -19.11005  181(r),180(r),1823(g)
                                                    1728(r),1727(r),1726(r)
                                                    358(r),1725(r)
   174. CR (   1) O  51                  1.99989   -19.10977  1471(v),180(r),181(r)
   190. LP (   1) O  50                  1.95582    -0.60212  181(r),180(r),1725(r)
                                                    1495(v),1472(g),358(r)
                                                    1727(r),1726(r),355(r)
                                                    483(r),1785(r),769(r),771(r)
                                                    1185(r),977(r),1184(r)
   191. LP (   2) O  50                  1.63010    -0.60386  180(r),181(r),1495(v)
                                                    1726(r),1728(r),1472(g)
                                                    1725(r),1727(r),358(r)
                                                    351(r),977(r),978(r),483(r)
                                                    770(r),769(r),355(r),1186(r)
                                                    1185(r),1746(r),1745(r)
                                                    484(r),1766(r),1767(r)
                                                    1783(r),1784(r),1183(r)
                                                    1801(r),354(r),1800(r)
                                                    768(r),481(r),975(r),356(r)
                                                    324(r),981(r),373(r),1188(r)
                                                    771(r)
   192. LP (   1) O  51                  1.98669    -0.82273  181(r),180(r),1471(v)
                                                    1727(r),358(r),1790(r)
                                                    1185(r),769(r)
   193. LP (   2) O  51                  1.94845    -0.32806  1469(v),1473(v),1727(r)
                                                    1728(r),180(r),181(r),356(r)
                                                    355(r),977(r),354(r),1725(r)
                                                    983(r),1081(r)
  1469. RY*(   1) O  50                  0.00687     1.14479   
  1470. RY*(   2) O  50                  0.00267     1.74921   
  1471. RY*(   3) O  50                  0.00243     1.59157   
  1472. RY*(   4) O  50                  0.00108     2.39696   
  1473. RY*(   5) O  50                  0.00058     2.64994   
  1474. RY*(   6) O  50                  0.00042     1.76982   
  1475. RY*(   7) O  50                  0.00010     3.48361   
  1476. RY*(   8) O  50                  0.00009     2.73040   
  1477. RY*(   9) O  50                  0.00007     4.70352   
  1478. RY*(  10) O  50                  0.00005     2.78092   
  1479. RY*(  11) O  50                  0.00002     3.31075   
  1480. RY*(  12) O  50                  0.00003     3.38251   
  1481. RY*(  13) O  50                  0.00000     6.43071   
  1482. RY*(  14) O  50                  0.00000    41.94876   
  1483. RY*(  15) O  50                  0.00000     6.56713   
  1484. RY*(  16) O  50                  0.00000     6.26388   
  1485. RY*(  17) O  50                  0.00000     6.45854   
  1486. RY*(  18) O  50                  0.00001     2.64786   
  1487. RY*(  19) O  50                  0.00000     6.41500   
  1488. RY*(  20) O  50                  0.00000     5.30794   
  1489. RY*(  21) O  50                  0.00000     5.12263   
  1490. RY*(  22) O  50                  0.00000     5.32938   
  1491. RY*(  23) O  50                  0.00000     5.48436   
  1492. RY*(  24) O  50                  0.00000     5.28836   
  1493. RY*(  25) O  50                  0.00000     5.49682   
  1494. RY*(  26) O  50                  0.00000     5.48266   
  1495. RY*(   1) O  51                  0.00470     0.96917   
  1496. RY*(   2) O  51                  0.00350     0.93865   
  1497. RY*(   3) O  51                  0.00021     1.54877   
  1498. RY*(   4) O  51                  0.00018     2.10927   
  1499. RY*(   5) O  51                  0.00011     1.71023   
  1500. RY*(   6) O  51                  0.00006     2.20555   
  1501. RY*(   7) O  51                  0.00003     3.46260   
  1502. RY*(   8) O  51                  0.00001     3.35429   
  1503. RY*(   9) O  51                  0.00002     2.72100   
  1504. RY*(  10) O  51                  0.00002     2.79126   
  1505. RY*(  11) O  51                  0.00001     4.03079   
  1506. RY*(  12) O  51                  0.00001     2.89080   
  1507. RY*(  13) O  51                  0.00000     6.20547   
  1508. RY*(  14) O  51                  0.00000     6.31127   
  1509. RY*(  15) O  51                  0.00000     6.38043   
  1510. RY*(  16) O  51                  0.00000    42.17603   
  1511. RY*(  17) O  51                  0.00000     6.41047   
  1512. RY*(  18) O  51                  0.00000     2.62184   
  1513. RY*(  19) O  51                  0.00000     6.07198   
  1514. RY*(  20) O  51                  0.00000     5.12557   
  1515. RY*(  21) O  51                  0.00000     5.10354   
  1516. RY*(  22) O  51                  0.00000     5.39645   
  1517. RY*(  23) O  51                  0.00000     5.15783   
  1518. RY*(  24) O  51                  0.00000     5.24693   
  1519. RY*(  25) O  51                  0.00000     5.31645   
  1520. RY*(  26) O  51                  0.00000     5.21593   
  1822. BD*(   1) O  50 - O  51          0.51645    -0.12639  179(r),1496(g),1474(g)
                                                    1470(g),1504(g),1768(r)
                                                    38(r),1726(r),1728(r)
  1823. BD*(   2) O  50 - O  51          0.00803     0.34684   
       -------------------------------
              Total Lewis   15.50718  ( 96.5881%)
        Valence non-Lewis    0.52447  (  3.2667%)
        Rydberg non-Lewis    0.02330  (  0.1451%)
       -------------------------------
            Total unit  3   16.05496  (100.0000%)
           Charge unit  3   -0.05496
 1\1\GINC-NODE634\SP\RPBE1PBE\def2TZVP\C38H38Fe1N6O6\ZHARTOVSKA\02-Sep-
 2022\0\\# PBE1PBE/def2TZVP empiricaldispersion=GD3BJ int=(grid=ultrafi
 ne) geom=check guess=read pop=nbo scf=qc\\1a6m_II_S_nbo\\0,1\C,0,9.503
 ,29.450001,2.528\C,0,10.705,29.33,3.406\N,0,10.972,30.184,4.45\C,0,11.
 799,28.49,3.348\C,0,12.167,29.837,4.966\N,0,12.684,28.843,4.36\Fe,0,14
 .515,27.975,4.75\C,0,15.904,31.066,5.05\C,0,13.782,28.006001,8.099\C,0
 ,13.251,24.816999,4.509\C,0,15.381,27.908001,1.499\N,0,14.784,29.263,6
 .257\C,0,15.32,30.527,6.185\C,0,15.292,31.177,7.5\C,0,14.744,30.264,8.
 355\C,0,14.411,29.112,7.593\C,0,14.477,30.427999,9.835\C,0,15.687,32.5
 83,7.757\C,0,14.458,33.523998,7.976\C,0,13.561,33.534,6.775\O,0,12.4,3
 3.104,6.842\O,0,14.05,33.974998,5.683\N,0,13.664,26.679001,6.009\C,0,1
 3.423,26.879,7.368\C,0,12.776,25.68,7.928\C,0,12.644,24.799999,6.938\C
 ,0,13.185,25.434,5.76\C,0,12.364,25.563999,9.367\C,0,12.101,23.393,6.9
 89\C,0,12.33544484,22.61511205,8.07366262\N,0,14.311,26.643999,3.267\C
 ,0,13.834,25.344,3.365\C,0,14.05,24.629,2.134\C,0,14.671,25.493,1.316\
 C,0,14.805,26.752001,2.018\C,0,13.686,23.193001,1.908\C,0,15.24,25.292
 999,-0.044\C,0,15.157,24.198999,-0.766\N,0,15.389,29.280001,3.475\C,0,
 15.682,29.076,2.164\C,0,16.362,30.195,1.608\C,0,16.57,31.069,2.646\C,0
 ,15.937,30.499001,3.808\C,0,16.872,30.306,0.198\C,0,17.386999,32.32899
 9,2.587\C,0,18.889,32.016998,2.859\C,0,19.761999,33.226002,2.747\O,0,2
 0.186001,33.643002,1.646\O,0,20.149,33.749001,3.83\O,0,16.131001,27.28
 9,5.175\O,0,16.805,26.632,4.375\H,0,11.94184704,27.69901919,2.64171105
 \H,0,12.62895569,30.33883216,5.79041581\H,0,10.38508529,30.92828811,4.
 76869474\H,0,9.73434852,29.07413045,1.55326968\H,0,8.69748747,28.88367
 956,2.94672377\H,0,9.215918,30.478175,2.45491005\H,0,11.53086522,23.00
 951256,6.16876606\H,0,13.27179907,22.68136634,8.58722968\H,0,11.584197
 61,21.93467384,8.4164912\H,0,13.10623071,26.01994782,9.98837287\H,0,11
 .42601091,26.05847705,9.51041517\H,0,12.26612081,24.53089676,9.6278053
 3\H,0,13.54740649,28.00926417,9.14296132\H,0,15.27398744,30.98498077,1
 0.28163445\H,0,13.55411414,30.95101626,9.97512362\H,0,14.41405079,29.4
 6399557,10.2950378\H,0,12.8102471,23.84567497,4.42434476\H,0,14.446851
 87,22.56317411,2.31948816\H,0,12.75187891,22.98243469,2.38547212\H,0,1
 3.59936539,23.00806006,0.85767086\H,0,15.97636758,23.51132912,-0.79143
 422\H,0,14.27001464,23.99540787,-1.32876782\H,0,15.76680459,26.1187154
 4,-0.47477754\H,0,15.61901743,27.88665359,0.45602733\H,0,17.81483795,2
 9.80622709,0.11936397\H,0,16.17113032,29.85274244,-0.47150674\H,0,16.9
 9298414,31.338026,-0.05731388\H,0,16.37558298,32.02047975,5.15713501\H
 ,0,17.28776525,32.76919021,1.6168019\H,0,17.02978184,33.0164586,3.3250
 3469\H,0,19.2221061,31.28493154,2.15329537\H,0,18.98394539,31.61366703
 ,3.84551381\H,0,21.08745141,33.83695656,4.01213394\H,0,16.30498504,32.
 61373062,8.62995482\H,0,16.25121482,32.94114726,6.92136122\H,0,14.8067
 6715,34.51848324,8.16109612\H,0,13.90293047,33.18349889,8.82503367\H,0
 ,15.00189445,34.02161352,5.56757057\\Version=ES64L-G16RevA.03\State=1-
 A\HF=-3512.4498768\RMSD=7.738e-10\Dipole=-1.0961592,1.1379327,1.291238
 \Quadrupole=5.1285386,-4.2358638,-0.8926749,10.8752317,17.0354506,13.7
 23934\PG=C01 [X(C38H38Fe1N6O6)]\\@


 MANHOOD BEGINS BY TRYING TO SHAVE FACE,
 AND ENDS BY TRYING TO SAVE FACE.
 Job cpu time:       0 days  2 hours  2 minutes 50.4 seconds.
 Elapsed time:       0 days  0 hours 30 minutes 48.0 seconds.
 File lengths (MBytes):  RWF=   1120 Int=      0 D2E=      0 Chk=    217 Scr=      1
 Normal termination of Gaussian 16 at Fri Sep  2 18:00:50 2022.
