 Initial command:
 /afs/math/software/gaussian/g16.A03/g16/l1.exe "/scratch/kleich_gaussian.MDcPPyc/Gau-28562.inp" -scrdir="/scratch/kleich_gaussian.MDcPPyc/"
 Entering Link 1 = /afs/math/software/gaussian/g16.A03/g16/l1.exe PID=      1771.
  
 Copyright (c) 1988,1990,1992,1993,1995,1998,2003,2009,2016,
            Gaussian, Inc.  All Rights Reserved.
  
 This is part of the Gaussian(R) 16 program.  It is based on
 the Gaussian(R) 09 system (copyright 2009, Gaussian, Inc.),
 the Gaussian(R) 03 system (copyright 2003, Gaussian, Inc.),
 the Gaussian(R) 98 system (copyright 1998, Gaussian, Inc.),
 the Gaussian(R) 94 system (copyright 1995, Gaussian, Inc.),
 the Gaussian 92(TM) system (copyright 1992, Gaussian, Inc.),
 the Gaussian 90(TM) system (copyright 1990, Gaussian, Inc.),
 the Gaussian 88(TM) system (copyright 1988, Gaussian, Inc.),
 the Gaussian 86(TM) system (copyright 1986, Carnegie Mellon
 University), and the Gaussian 82(TM) system (copyright 1983,
 Carnegie Mellon University). Gaussian is a federally registered
 trademark of Gaussian, Inc.
  
 This software contains proprietary and confidential information,
 including trade secrets, belonging to Gaussian, Inc.
  
 This software is provided under written license and may be
 used, copied, transmitted, or stored only in accord with that
 written license.
  
 The following legend is applicable only to US Government
 contracts under FAR:
  
                    RESTRICTED RIGHTS LEGEND
  
 Use, reproduction and disclosure by the US Government is
 subject to restrictions as set forth in subparagraphs (a)
 and (c) of the Commercial Computer Software - Restricted
 Rights clause in FAR 52.227-19.
  
 Gaussian, Inc.
 340 Quinnipiac St., Bldg. 40, Wallingford CT 06492
  
  
 ---------------------------------------------------------------
 Warning -- This program may not be used in any manner that
 competes with the business of Gaussian, Inc. or will provide
 assistance to any competitor of Gaussian, Inc.  The licensee
 of this program is prohibited from giving any competitor of
 Gaussian, Inc. access to this program.  By using this program,
 the user acknowledges that Gaussian, Inc. is engaged in the
 business of creating and licensing software in the field of
 computational chemistry and represents and warrants to the
 licensee that it is not a competitor of Gaussian, Inc. and that
 it will not use this program in any manner prohibited above.
 ---------------------------------------------------------------
  

 Cite this work as:
 Gaussian 16, Revision A.03,
 M. J. Frisch, G. W. Trucks, H. B. Schlegel, G. E. Scuseria, 
 M. A. Robb, J. R. Cheeseman, G. Scalmani, V. Barone, 
 G. A. Petersson, H. Nakatsuji, X. Li, M. Caricato, A. V. Marenich, 
 J. Bloino, B. G. Janesko, R. Gomperts, B. Mennucci, H. P. Hratchian, 
 J. V. Ortiz, A. F. Izmaylov, J. L. Sonnenberg, D. Williams-Young, 
 F. Ding, F. Lipparini, F. Egidi, J. Goings, B. Peng, A. Petrone, 
 T. Henderson, D. Ranasinghe, V. G. Zakrzewski, J. Gao, N. Rega, 
 G. Zheng, W. Liang, M. Hada, M. Ehara, K. Toyota, R. Fukuda, 
 J. Hasegawa, M. Ishida, T. Nakajima, Y. Honda, O. Kitao, H. Nakai, 
 T. Vreven, K. Throssell, J. A. Montgomery, Jr., J. E. Peralta, 
 F. Ogliaro, M. J. Bearpark, J. J. Heyd, E. N. Brothers, K. N. Kudin, 
 V. N. Staroverov, T. A. Keith, R. Kobayashi, J. Normand, 
 K. Raghavachari, A. P. Rendell, J. C. Burant, S. S. Iyengar, 
 J. Tomasi, M. Cossi, J. M. Millam, M. Klene, C. Adamo, R. Cammi, 
 J. W. Ochterski, R. L. Martin, K. Morokuma, O. Farkas, 
 J. B. Foresman, and D. J. Fox, Gaussian, Inc., Wallingford CT, 2016.
 
 ******************************************
 Gaussian 16:  ES64L-G16RevA.03 25-Dec-2016
                13-Oct-2022 
 ******************************************
 %nprocs=12
 Will use up to   12 processors via shared memory.
 %mem=16GB
 %chk=1aw3_II_Q.chk
 ----------------------------------------------------------------------
 # PBE1PBE/def2TZVP empiricaldispersion=GD3BJ int=(grid=ultrafine) geom
 =check guess=read scrf=(smd,solvent=Chloroform)
 ----------------------------------------------------------------------
 1/29=2,38=1,172=1/1;
 2/12=2,40=1/2;
 3/5=44,7=101,11=2,14=-4,25=1,30=1,70=32201,72=7,74=-13,75=-5,116=-2,124=41/1,2,3;
 4/5=1/1;
 5/5=2,38=6,53=7/2;
 6/7=2,8=2,9=2,10=2,28=1/1;
 99/5=1,9=1/99;
 --------------
 1aw3_II_Q_solv
 --------------
 Structure from the checkpoint file:  "1aw3_II_Q.chk"
 Charge =  0 Multiplicity = 5
 Z-Matrix found in chk file.
 C,0,4.428,9.754,1.996
 C,0,3.012,9.72,2.522
 N,0,2.674,9.452,3.824
 C,0,1.843,9.805,1.81
 C,0,1.338,9.387,3.894
 N,0,0.779,9.575,2.689
 H,0,4.583,8.873,1.373
 H,0,5.099,9.671,2.852
 H,0,3.321,9.286,4.585
 H,0,1.751,9.989,0.755
 H,0,0.806,9.184,4.805
 C,0,-6.248,10.013,0.126
 C,0,-5.16,9.694,1.112
 N,0,-5.297,8.979,2.278
 C,0,-3.834,9.989,0.948
 C,0,-4.062,8.858,2.802
 N,0,-3.129,9.446,2.021
 H,0,-6.869,9.133,-0.016
 H,0,-5.763,10.207,-0.826
 H,0,-6.156,8.576,2.649
 H,0,-3.408,10.531,0.12
 H,0,-3.877,8.333,3.724
 C,0,-1.333,12.913,2.873
 C,0,-0.466,10.195,-1.128
 C,0,-1.143,6.149,1.56
 C,0,-1.72,8.874,5.632
 C,0,-1.123,12.495,1.558
 C,0,-1.063,13.397,0.434
 C,0,-0.748,12.656,-0.682
 C,0,-0.715,11.269,-0.274
 C,0,-0.515,13.218,-2.067
 C,0,-1.36,14.878,0.473
 C,0,-2.786,15.185,0.941
 C,0,-3.153,16.658,0.83
 O,0,-2.5,17.359,0.027
 O,0,-4.098,17.055,1.544
 C,0,-0.534,8.873,-0.708
 C,0,-0.314,7.74,-1.577
 C,0,-0.563,6.629,-0.812
 C,0,-0.863,7.033,0.532
 C,0,0.108,7.775,-3.026
 C,0,-0.44,5.191,-1.257
 C,0,-0.981,4.782,-2.415
 C,0,-1.347,6.551,2.877
 C,0,-1.673,5.652,3.954
 C,0,-1.699,6.409,5.097
 C,0,-1.571,7.799,4.746
 C,0,-1.997,4.189,3.838
 C,0,-2.042,5.893,6.476
 C,0,-1.558,4.719,6.939
 C,0,-1.672,10.215,5.225
 C,0,-1.869,11.355,6.093
 C,0,-1.72,12.494,5.327
 C,0,-1.482,12.058,3.967
 C,0,-2.221,11.305,7.561
 C,0,-1.929,13.933,5.773
 C,0,-1.24,14.359,7.076
 C,0,-1.561,15.812,7.393
 O,0,-0.742,16.674,7.011
 O,0,-2.63,16.031,8.002
 N,0,-0.975,11.234,1.077
 N,0,-0.821,8.393,0.554
 N,0,-1.332,7.823,3.394
 N,0,-1.461,10.7,3.968
 Fe,0,-1.148,9.534,2.257
 H,0,-0.257,10.379,-2.168
 H,0,-1.196,5.104,1.306
 H,0,-1.899,8.65,6.671
 H,0,-0.18,4.44,-0.536
 H,0,-2.635,6.508,7.131
 H,0,-1.347,13.973,3.044
 H,0,0.244,13.998,-2.019
 H,0,-0.176,12.464,-2.774
 H,0,-1.442,13.654,-2.439
 H,0,-0.665,15.381,1.137
 H,0,-1.23,15.299,-0.524
 H,0,-3.456,14.608,0.324
 H,0,-2.954,14.883,1.971
 H,0,0.921,8.486,-3.162
 H,0,0.467,6.797,-3.34
 H,0,-0.741,8.059,-3.645
 H,0,-1.84,5.341,-2.723
 H,0,-0.882,3.752,-2.724
 H,0,-1.096,3.595,3.995
 H,0,-2.746,3.95,4.592
 H,0,-2.42,3.965,2.862
 H,0,-0.823,4.169,6.371
 H,0,-1.719,4.449,7.972
 H,0,-1.321,11.466,8.155
 H,0,-2.959,12.076,7.784
 H,0,-2.658,10.349,7.838
 H,0,-1.535,14.623,5.031
 H,0,-3.002,14.12,5.836
 H,0,-1.564,13.767,7.925
 H,0,-0.163,14.253,6.971
 H,0,4.60592924,10.65110633,1.44062498
 H,0,-6.83464038,10.83913137,0.46988957
 H,0,-3.91740169,17.51318705,2.36804422
 H,0,0.20042932,16.50684755,7.08507452
 Recover connectivity data from disk.
 Center=     -1.33725943     10.20181083      2.41749125
 Residue   0                        charge    0.00000000 layers R        AvRTP=      7.20799197     94.37794463     71.31600884
 Residue   4                        charge    0.00000000 layers R        AvRTP=      0.00000000      0.00000000      0.00000000
 Residue   2 PDB Number    63_A HIS charge    0.00000000 layers R        AvRTP=      3.93924200    189.95149815    106.72305001
 Residue   3 PDB Number    96_A HEM charge    0.00000000 layers R        AvRTP=      0.09971393    164.60152012     41.54271360
 Residue   1 PDB Number    39_A HIS charge    0.00000000 layers R        AvRTP=      4.24209913    351.99191005     86.01719095
 Stoichiometry    C42H44FeN8O4(5)
 Framework group  C1[X(C42H44FeN8O4)]
 Deg. of freedom   291
 Full point group                 C1      NOp   1
 Largest Abelian subgroup         C1      NOp   1
 Largest concise Abelian subgroup C1      NOp   1
                         Standard orientation:                         
 ---------------------------------------------------------------------
 Center     Atomic      Atomic             Coordinates (Angstroms)
 Number     Number       Type             X           Y           Z
 ---------------------------------------------------------------------
      1          6           0       -1.448354   -0.350397    5.649956
      2          6           0       -1.144289    0.176523    4.266920
      3          7           0       -0.956512    1.501253    3.965085
      4          6           0       -1.137778   -0.513185    3.081597
      5          6           0       -0.831320    1.603380    2.635455
      6          7           0       -0.954038    0.406028    2.042885
      7          1           0       -2.489932   -0.671197    5.672718
      8          1           0       -1.347314    0.481330    6.348445
      9          1           0       -0.959955    2.268689    4.625628
     10          1           0       -1.276016   -1.572094    2.959344
     11          1           0       -0.678031    2.538497    2.129280
     12          6           0       -0.457650   -2.085126   -5.006037
     13          6           0       -0.591051   -1.061441   -3.914261
     14          7           0       -0.891683    0.270313   -4.074272
     15          6           0       -0.526728   -1.324142   -2.572976
     16          6           0       -0.997935    0.791707   -2.836815
     17          7           0       -0.797563   -0.143860   -1.882478
     18          1           0       -1.255004   -1.940027   -5.729486
     19          1           0       -0.626189   -3.055884   -4.549542
     20          1           0       -1.052220    0.757896   -4.954285
     21          1           0       -0.321523   -2.284268   -2.129273
     22          1           0       -1.233793    1.828865   -2.667678
     23          6           0        2.513870   -0.429899    0.336577
     24          6           0       -1.384615   -3.400408    0.690272
     25          6           0       -4.296082    0.417483   -0.310159
     26          6           0       -0.405069    3.449967   -0.371803
     27          6           0        1.690452   -1.552756    0.432604
     28          6           0        2.189966   -2.901690    0.539583
     29          6           0        1.109689   -3.736413    0.712793
     30          6           0       -0.078477   -2.918785    0.607595
     31          6           0        1.186944   -5.230011    0.939850
     32          6           0        3.636446   -3.320494    0.415533
     33          6           0        4.245824   -2.954350   -0.941429
     34          6           0        5.647440   -3.512458   -1.143233
     35          8           0        5.982325   -4.500751   -0.454939
     36          8           0        6.357705   -2.945926   -2.000551
     37          6           0       -2.495274   -2.590365    0.492851
     38          6           0       -3.858112   -3.067615    0.539292
     39          6           0       -4.641538   -1.992955    0.203292
     40          6           0       -3.811326   -0.837148    0.017793
     41          6           0       -4.321228   -4.460794    0.890695
     42          6           0       -6.150339   -1.971430    0.139603
     43          6           0       -6.824352   -2.939161   -0.500811
     44          6           0       -3.487893    1.547135   -0.401957
     45          6           0       -3.966107    2.853530   -0.774851
     46          6           0       -2.898168    3.705621   -0.658143
     47          6           0       -1.709599    2.939389   -0.390043
     48          6           0       -5.342455    3.200724   -1.268738
     49          6           0       -2.920252    5.180519   -0.989404
     50          6           0       -3.946258    5.979166   -0.620114
     51          6           0        0.729977    2.646621   -0.191424
     52          6           0        2.096273    3.120484   -0.214294
     53          6           0        2.918178    2.037344    0.025620
     54          6           0        2.060522    0.876967    0.145165
     55          6           0        2.542403    4.535569   -0.497012
     56          6           0        4.438856    2.017453    0.004137
     57          6           0        5.155057    3.116043    0.800481
     58          6           0        6.663260    2.970472    0.663110
     59          8           0        7.258594    2.330543    1.555185
     60          8           0        7.188670    3.493825   -0.342698
     61          7           0        0.334591   -1.620636    0.412115
     62          7           0       -2.526151   -1.238501    0.215500
     63          7           0       -2.130761    1.643944   -0.216703
     64          7           0        0.776496    1.298837    0.011331
     65         26           0       -0.886986    0.030323    0.104848
     66          1           0       -1.555452   -4.448533    0.867429
     67          1           0       -5.353677    0.500726   -0.494311
     68          1           0       -0.276000    4.509201   -0.523800
     69          1           0       -6.670363   -1.056123    0.347517
     70          1           0       -2.065806    5.619291   -1.475511
     71          1           0        3.568470   -0.595922    0.451871
     72          1           0        1.844057   -5.435048    1.784212
     73          1           0        0.216757   -5.672174    1.155525
     74          1           0        1.599021   -5.708158    0.051382
     75          1           0        4.228779   -2.853302    1.195150
     76          1           0        3.712238   -4.400332    0.543420
     77          1           0        3.594959   -3.354201   -1.702358
     78          1           0        4.297157   -1.879608   -1.091840
     79          1           0       -3.792294   -4.819970    1.771722
     80          1           0       -5.384883   -4.460124    1.120038
     81          1           0       -4.137938   -5.127505    0.050148
     82          1           0       -6.284974   -3.395400   -1.304641
     83          1           0       -7.903426   -2.914609   -0.535136
     84          1           0       -5.966327    3.523788   -0.434653
     85          1           0       -5.244437    4.000263   -2.002065
     86          1           0       -5.800671    2.347269   -1.762029
     87          1           0       -4.730243    5.601300    0.018583
     88          1           0       -3.864668    7.046754   -0.759785
     89          1           0        2.765161    5.039916    0.443610
     90          1           0        3.429633    4.516965   -1.130488
     91          1           0        1.778970    5.100424   -1.025919
     92          1           0        4.814055    1.093549    0.437183
     93          1           0        4.767252    2.031736   -1.036160
     94          1           0        4.896491    4.110461    0.453326
     95          1           0        4.889749    3.036667    1.851909
     96          1           0       -0.793793   -1.158627    5.901383
     97          1           0        0.499954   -2.007654   -5.477092
     98          1           0        7.020348   -2.306755   -1.728586
     99          1           0        7.007068    2.441919    2.474930
 ---------------------------------------------------------------------
 Rotational constants (GHZ):           0.0609970           0.0416828           0.0332059
 Standard basis: def2TZVP (5D, 7F)
 There are  2260 symmetry adapted cartesian basis functions of A   symmetry.
 There are  1983 symmetry adapted basis functions of A   symmetry.
  1983 basis functions,  3208 primitive gaussians,  2260 cartesian basis functions
   207 alpha electrons      203 beta electrons
       nuclear repulsion energy      8826.4982644515 Hartrees.
 NAtoms=   99 NActive=   99 NUniq=   99 SFac= 1.00D+00 NAtFMM=   60 NAOKFM=T Big=T
 Integral buffers will be    131072 words long.
 Raffenetti 2 integral format.
 Two-electron integral symmetry is turned on.
 Nuclear repulsion after empirical dispersion term =     8826.3554469331 Hartrees.
 ------------------------------------------------------------------------------
 Polarizable Continuum Model (PCM)
 =================================
 Model                : PCM.
 Atomic radii         : SMD-Coulomb.
 Polarization charges : Total charges.
 Charge compensation  : None.
 Solution method      : On-the-fly selection.
 Cavity type          : VdW (van der Waals Surface) (Alpha=1.000).
 Cavity algorithm     : GePol (No added spheres)
                        Default sphere list used, NSphG=   99.
                        Lebedev-Laikov grids with approx.  5.0 points / Ang**2.
                        Smoothing algorithm: York/Karplus (Gamma=1.0000).
                        Polarization charges: spherical gaussians, with
                                              point-specific exponents (IZeta= 3).
                        Self-potential: point-specific (ISelfS= 7).
                        Self-field    : sphere-specific E.n sum rule (ISelfD= 2).
 Solvent              : Chloroform, Eps=   4.711300 Eps(inf)=   2.090627
 ------------------------------------------------------------------------------
 ------------------------------------------------------------------------------
 Atomic radii for non-electrostatic terms: SMD-CDS.
 ------------------------------------------------------------------------------
 Nuclear repulsion after PCM non-electrostatic terms =     8826.3323144843 Hartrees.
 One-electron integrals computed using PRISM.
   1 Symmetry operations used in ECPInt.
 ECPInt:  NShTT=  308505 NPrTT=  954269 LenC2=  223323 LenP2D=  444511.
 LDataN:  DoStor=T MaxTD1= 6 Len=  172
 NBasis=  1983 RedAO= T EigKep=  3.25D-06  NBF=  1983
 NBsUse=  1983 1.00D-06 EigRej= -1.00D+00 NBFU=  1983
 Initial guess from the checkpoint file:  "1aw3_II_Q.chk"
 B after Tr=    -0.000000    0.000000   -0.000000
         Rot=    1.000000   -0.000000   -0.000000    0.000000 Ang=   0.00 deg.
 Initial guess <Sx>= 0.0000 <Sy>= 0.0000 <Sz>= 2.0000 <S**2>= 6.2922 S= 2.0578
 Requested convergence on RMS density matrix=1.00D-08 within 128 cycles.
 Requested convergence on MAX density matrix=1.00D-06.
 Requested convergence on             energy=1.00D-06.
 No special actions if energy rises.
 Inv3:  Mode=1 IEnd=   150209328.
 Iteration    1 A*A^-1 deviation from unit magnitude is 4.55D-15 for   3036.
 Iteration    1 A*A^-1 deviation from orthogonality  is 2.64D-15 for   5015   4727.
 Iteration    1 A^-1*A deviation from unit magnitude is 4.55D-15 for   3036.
 Iteration    1 A^-1*A deviation from orthogonality  is 3.96D-15 for   4693   4662.
 EnCoef did     6 forward-backward iterations
 Restarting incremental Fock formation.
 Restarting incremental Fock formation.
 Restarting incremental Fock formation.
 Restarting incremental Fock formation.
 Error on total polarization charges =  0.06431
 SCF Done:  E(UPBE1PBE) =  -3627.73884090     A.U. after   94 cycles
            NFock= 94  Conv=0.18D-08     -V/T= 2.0035
 <Sx>= 0.0000 <Sy>= 0.0000 <Sz>= 2.0000 <S**2>= 6.3184 S= 2.0629
 <L.S>= 0.000000000000E+00
 SMD-CDS (non-electrostatic) energy       (kcal/mol) =     -14.52
 (included in total energy above)
 Annihilation of the first spin contaminant:
 S**2 before annihilation     6.3184,   after     6.0024

 **********************************************************************

            Population analysis using the SCF density.

 **********************************************************************

 Orbital symmetries:
 Alpha Orbitals:
       Occupied  (A) (A) (A) (A) (A) (A) (A) (A) (A) (A) (A) (A)
                 (A) (A) (A) (A) (A) (A) (A) (A) (A) (A) (A) (A)
                 (A) (A) (A) (A) (A) (A) (A) (A) (A) (A) (A) (A)
                 (A) (A) (A) (A) (A) (A) (A) (A) (A) (A) (A) (A)
                 (A) (A) (A) (A) (A) (A) (A) (A) (A) (A) (A) (A)
                 (A) (A) (A) (A) (A) (A) (A) (A) (A) (A) (A) (A)
                 (A) (A) (A) (A) (A) (A) (A) (A) (A) (A) (A) (A)
                 (A) (A) (A) (A) (A) (A) (A) (A) (A) (A) (A) (A)
                 (A) (A) (A) (A) (A) (A) (A) (A) (A) (A) (A) (A)
                 (A) (A) (A) (A) (A) (A) (A) (A) (A) (A) (A) (A)
                 (A) (A) (A) (A) (A) (A) (A) (A) (A) (A) (A) (A)
                 (A) (A) (A) (A) (A) (A) (A) (A) (A) (A) (A) (A)
                 (A) (A) (A) (A) (A) (A) (A) (A) (A) (A) (A) (A)
                 (A) (A) (A) (A) (A) (A) (A) (A) (A) (A) (A) (A)
                 (A) (A) (A) (A) (A) (A) (A) (A) (A) (A) (A) (A)
                 (A) (A) (A) (A) (A) (A) (A) (A) (A) (A) (A) (A)
                 (A) (A) (A) (A) (A) (A) (A) (A) (A) (A) (A) (A)
                 (A) (A) (A)
       Virtual   (A) (A) (A) (A) (A) (A) (A) (A) (A) (A) (A) (A)
                 (A) (A) (A) (A) (A) (A) (A) (A) (A) (A) (A) (A)
                 (A) (A) (A) (A) (A) (A) (A) (A) (A) (A) (A) (A)
                 (A) (A) (A) (A) (A) (A) (A) (A) (A) (A) (A) (A)
                 (A) (A) (A) (A) (A) (A) (A) (A) (A) (A) (A) (A)
                 (A) (A) (A) (A) (A) (A) (A) (A) (A) (A) (A) (A)
                 (A) (A) (A) (A) (A) (A) (A) (A) (A) (A) (A) (A)
                 (A) (A) (A) (A) (A) (A) (A) (A) (A) (A) (A) (A)
                 (A) (A) (A) (A) (A) (A) (A) (A) (A) (A) (A) (A)
                 (A) (A) (A) (A) (A) (A) (A) (A) (A) (A) (A) (A)
                 (A) (A) (A) (A) (A) (A) (A) (A) (A) (A) (A) (A)
                 (A) (A) (A) (A) (A) (A) (A) (A) (A) (A) (A) (A)
                 (A) (A) (A) (A) (A) (A) (A) (A) (A) (A) (A) (A)
                 (A) (A) (A) (A) (A) (A) (A) (A) (A) (A) (A) (A)
                 (A) (A) (A) (A) (A) (A) (A) (A) (A) (A) (A) (A)
                 (A) (A) (A) (A) (A) (A) (A) (A) (A) (A) (A) (A)
                 (A) (A) (A) (A) (A) (A) (A) (A) (A) (A) (A) (A)
                 (A) (A) (A) (A) (A) (A) (A) (A) (A) (A) (A) (A)
                 (A) (A) (A) (A) (A) (A) (A) (A) (A) (A) (A) (A)
                 (A) (A) (A) (A) (A) (A) (A) (A) (A) (A) (A) (A)
                 (A) (A) (A) (A) (A) (A) (A) (A) (A) (A) (A) (A)
                 (A) (A) (A) (A) (A) (A) (A) (A) (A) (A) (A) (A)
                 (A) (A) (A) (A) (A) (A) (A) (A) (A) (A) (A) (A)
                 (A) (A) (A) (A) (A) (A) (A) (A) (A) (A) (A) (A)
                 (A) (A) (A) (A) (A) (A) (A) (A) (A) (A) (A) (A)
                 (A) (A) (A) (A) (A) (A) (A) (A) (A) (A) (A) (A)
                 (A) (A) (A) (A) (A) (A) (A) (A) (A) (A) (A) (A)
                 (A) (A) (A) (A) (A) (A) (A) (A) (A) (A) (A) (A)
                 (A) (A) (A) (A) (A) (A) (A) (A) (A) (A) (A) (A)
                 (A) (A) (A) (A) (A) (A) (A) (A) (A) (A) (A) (A)
                 (A) (A) (A) (A) (A) (A) (A) (A) (A) (A) (A) (A)
                 (A) (A) (A) (A) (A) (A) (A) (A) (A) (A) (A) (A)
                 (A) (A) (A) (A) (A) (A) (A) (A) (A) (A) (A) (A)
                 (A) (A) (A) (A) (A) (A) (A) (A) (A) (A) (A) (A)
                 (A) (A) (A) (A) (A) (A) (A) (A) (A) (A) (A) (A)
                 (A) (A) (A) (A) (A) (A) (A) (A) (A) (A) (A) (A)
                 (A) (A) (A) (A) (A) (A) (A) (A) (A) (A) (A) (A)
                 (A) (A) (A) (A) (A) (A) (A) (A) (A) (A) (A) (A)
                 (A) (A) (A) (A) (A) (A) (A) (A) (A) (A) (A) (A)
                 (A) (A) (A) (A) (A) (A) (A) (A) (A) (A) (A) (A)
                 (A) (A) (A) (A) (A) (A) (A) (A) (A) (A) (A) (A)
                 (A) (A) (A) (A) (A) (A) (A) (A) (A) (A) (A) (A)
                 (A) (A) (A) (A) (A) (A) (A) (A) (A) (A) (A) (A)
                 (A) (A) (A) (A) (A) (A) (A) (A) (A) (A) (A) (A)
                 (A) (A) (A) (A) (A) (A) (A) (A) (A) (A) (A) (A)
                 (A) (A) (A) (A) (A) (A) (A) (A) (A) (A) (A) (A)
                 (A) (A) (A) (A) (A) (A) (A) (A) (A) (A) (A) (A)
                 (A) (A) (A) (A) (A) (A) (A) (A) (A) (A) (A) (A)
                 (A) (A) (A) (A) (A) (A) (A) (A) (A) (A) (A) (A)
                 (A) (A) (A) (A) (A) (A) (A) (A) (A) (A) (A) (A)
                 (A) (A) (A) (A) (A) (A) (A) (A) (A) (A) (A) (A)
                 (A) (A) (A) (A) (A) (A) (A) (A) (A) (A) (A) (A)
                 (A) (A) (A) (A) (A) (A) (A) (A) (A) (A) (A) (A)
                 (A) (A) (A) (A) (A) (A) (A) (A) (A) (A) (A) (A)
                 (A) (A) (A) (A) (A) (A) (A) (A) (A) (A) (A) (A)
                 (A) (A) (A) (A) (A) (A) (A) (A) (A) (A) (A) (A)
                 (A) (A) (A) (A) (A) (A) (A) (A) (A) (A) (A) (A)
                 (A) (A) (A) (A) (A) (A) (A) (A) (A) (A) (A) (A)
                 (A) (A) (A) (A) (A) (A) (A) (A) (A) (A) (A) (A)
                 (A) (A) (A) (A) (A) (A) (A) (A) (A) (A) (A) (A)
                 (A) (A) (A) (A) (A) (A) (A) (A) (A) (A) (A) (A)
                 (A) (A) (A) (A) (A) (A) (A) (A) (A) (A) (A) (A)
                 (A) (A) (A) (A) (A) (A) (A) (A) (A) (A) (A) (A)
                 (A) (A) (A) (A) (A) (A) (A) (A) (A) (A) (A) (A)
                 (A) (A) (A) (A) (A) (A) (A) (A) (A) (A) (A) (A)
                 (A) (A) (A) (A) (A) (A) (A) (A) (A) (A) (A) (A)
                 (A) (A) (A) (A) (A) (A) (A) (A) (A) (A) (A) (A)
                 (A) (A) (A) (A) (A) (A) (A) (A) (A) (A) (A) (A)
                 (A) (A) (A) (A) (A) (A) (A) (A) (A) (A) (A) (A)
                 (A) (A) (A) (A) (A) (A) (A) (A) (A) (A) (A) (A)
                 (A) (A) (A) (A) (A) (A) (A) (A) (A) (A) (A) (A)
                 (A) (A) (A) (A) (A) (A) (A) (A) (A) (A) (A) (A)
                 (A) (A) (A) (A) (A) (A) (A) (A) (A) (A) (A) (A)
                 (A) (A) (A) (A) (A) (A) (A) (A) (A) (A) (A) (A)
                 (A) (A) (A) (A) (A) (A) (A) (A) (A) (A) (A) (A)
                 (A) (A) (A) (A) (A) (A) (A) (A) (A) (A) (A) (A)
                 (A) (A) (A) (A) (A) (A) (A) (A) (A) (A) (A) (A)
                 (A) (A) (A) (A) (A) (A) (A) (A) (A) (A) (A) (A)
                 (A) (A) (A) (A) (A) (A) (A) (A) (A) (A) (A) (A)
                 (A) (A) (A) (A) (A) (A) (A) (A) (A) (A) (A) (A)
                 (A) (A) (A) (A) (A) (A) (A) (A) (A) (A) (A) (A)
                 (A) (A) (A) (A) (A) (A) (A) (A) (A) (A) (A) (A)
                 (A) (A) (A) (A) (A) (A) (A) (A) (A) (A) (A) (A)
                 (A) (A) (A) (A) (A) (A) (A) (A) (A) (A) (A) (A)
                 (A) (A) (A) (A) (A) (A) (A) (A) (A) (A) (A) (A)
                 (A) (A) (A) (A) (A) (A) (A) (A) (A) (A) (A) (A)
                 (A) (A) (A) (A) (A) (A) (A) (A) (A) (A) (A) (A)
                 (A) (A) (A) (A) (A) (A) (A) (A) (A) (A) (A) (A)
                 (A) (A) (A) (A) (A) (A) (A) (A) (A) (A) (A) (A)
                 (A) (A) (A) (A) (A) (A) (A) (A) (A) (A) (A) (A)
                 (A) (A) (A) (A) (A) (A) (A) (A) (A) (A) (A) (A)
                 (A) (A) (A) (A) (A) (A) (A) (A) (A) (A) (A) (A)
                 (A) (A) (A) (A) (A) (A) (A) (A) (A) (A) (A) (A)
                 (A) (A) (A) (A) (A) (A) (A) (A) (A) (A) (A) (A)
                 (A) (A) (A) (A) (A) (A) (A) (A) (A) (A) (A) (A)
                 (A) (A) (A) (A) (A) (A) (A) (A) (A) (A) (A) (A)
                 (A) (A) (A) (A) (A) (A) (A) (A) (A) (A) (A) (A)
                 (A) (A) (A) (A) (A) (A) (A) (A) (A) (A) (A) (A)
                 (A) (A) (A) (A) (A) (A) (A) (A) (A) (A) (A) (A)
                 (A) (A) (A) (A) (A) (A) (A) (A) (A) (A) (A) (A)
                 (A) (A) (A) (A) (A) (A) (A) (A) (A) (A) (A) (A)
                 (A) (A) (A) (A) (A) (A) (A) (A) (A) (A) (A) (A)
                 (A) (A) (A) (A) (A) (A) (A) (A) (A) (A) (A) (A)
                 (A) (A) (A) (A) (A) (A) (A) (A) (A) (A) (A) (A)
                 (A) (A) (A) (A) (A) (A) (A) (A) (A) (A) (A) (A)
                 (A) (A) (A) (A) (A) (A) (A) (A) (A) (A) (A) (A)
                 (A) (A) (A) (A) (A) (A) (A) (A) (A) (A) (A) (A)
                 (A) (A) (A) (A) (A) (A) (A) (A) (A) (A) (A) (A)
                 (A) (A) (A) (A) (A) (A) (A) (A) (A) (A) (A) (A)
                 (A) (A) (A) (A) (A) (A) (A) (A) (A) (A) (A) (A)
                 (A) (A) (A) (A) (A) (A) (A) (A) (A) (A) (A) (A)
                 (A) (A) (A) (A) (A) (A) (A) (A) (A) (A) (A) (A)
                 (A) (A) (A) (A) (A) (A) (A) (A) (A) (A) (A) (A)
                 (A) (A) (A) (A) (A) (A) (A) (A) (A) (A) (A) (A)
                 (A) (A) (A) (A) (A) (A) (A) (A) (A) (A) (A) (A)
                 (A) (A) (A) (A) (A) (A) (A) (A) (A) (A) (A) (A)
                 (A) (A) (A) (A) (A) (A) (A) (A) (A) (A) (A) (A)
                 (A) (A) (A) (A) (A) (A) (A) (A) (A) (A) (A) (A)
                 (A) (A) (A) (A) (A) (A) (A) (A) (A) (A) (A) (A)
                 (A) (A) (A) (A) (A) (A) (A) (A) (A) (A) (A) (A)
                 (A) (A) (A) (A) (A) (A) (A) (A) (A) (A) (A) (A)
                 (A) (A) (A) (A) (A) (A) (A) (A) (A) (A) (A) (A)
                 (A) (A) (A) (A) (A) (A) (A) (A) (A) (A) (A) (A)
                 (A) (A) (A) (A) (A) (A) (A) (A) (A) (A) (A) (A)
                 (A) (A) (A) (A) (A) (A) (A) (A) (A) (A) (A) (A)
                 (A) (A) (A) (A) (A) (A) (A) (A) (A) (A) (A) (A)
                 (A) (A) (A) (A) (A) (A) (A) (A) (A) (A) (A) (A)
                 (A) (A) (A) (A) (A) (A) (A) (A) (A) (A) (A) (A)
                 (A) (A) (A) (A) (A) (A) (A) (A) (A) (A) (A) (A)
                 (A) (A) (A) (A) (A) (A) (A) (A) (A) (A) (A) (A)
                 (A) (A) (A) (A) (A) (A) (A) (A) (A) (A) (A) (A)
                 (A) (A) (A) (A) (A) (A) (A) (A) (A) (A) (A) (A)
                 (A) (A) (A) (A) (A) (A) (A) (A) (A) (A) (A) (A)
                 (A) (A) (A) (A) (A) (A) (A) (A) (A) (A) (A) (A)
                 (A) (A) (A) (A) (A) (A) (A) (A) (A) (A) (A) (A)
                 (A) (A) (A) (A) (A) (A) (A) (A) (A) (A) (A) (A)
                 (A) (A) (A) (A) (A) (A) (A) (A) (A) (A) (A) (A)
                 (A) (A) (A) (A) (A) (A) (A) (A) (A) (A) (A) (A)
                 (A) (A) (A) (A) (A) (A) (A) (A) (A) (A) (A) (A)
                 (A) (A) (A) (A) (A) (A) (A) (A) (A) (A) (A) (A)
                 (A) (A) (A) (A) (A) (A) (A) (A) (A) (A) (A) (A)
                 (A) (A) (A) (A) (A) (A) (A) (A) (A) (A) (A) (A)
                 (A) (A) (A) (A) (A) (A) (A) (A) (A) (A) (A) (A)
                 (A) (A) (A) (A) (A) (A) (A) (A) (A) (A) (A) (A)
                 (A) (A) (A) (A) (A) (A) (A) (A) (A) (A) (A) (A)
                 (A) (A) (A) (A) (A) (A) (A) (A) (A) (A) (A) (A)
                 (A) (A) (A) (A) (A) (A) (A) (A) (A) (A) (A) (A)
                 (A) (A) (A) (A) (A) (A) (A) (A) (A) (A) (A) (A)
 Beta  Orbitals:
       Occupied  (A) (A) (A) (A) (A) (A) (A) (A) (A) (A) (A) (A)
                 (A) (A) (A) (A) (A) (A) (A) (A) (A) (A) (A) (A)
                 (A) (A) (A) (A) (A) (A) (A) (A) (A) (A) (A) (A)
                 (A) (A) (A) (A) (A) (A) (A) (A) (A) (A) (A) (A)
                 (A) (A) (A) (A) (A) (A) (A) (A) (A) (A) (A) (A)
                 (A) (A) (A) (A) (A) (A) (A) (A) (A) (A) (A) (A)
                 (A) (A) (A) (A) (A) (A) (A) (A) (A) (A) (A) (A)
                 (A) (A) (A) (A) (A) (A) (A) (A) (A) (A) (A) (A)
                 (A) (A) (A) (A) (A) (A) (A) (A) (A) (A) (A) (A)
                 (A) (A) (A) (A) (A) (A) (A) (A) (A) (A) (A) (A)
                 (A) (A) (A) (A) (A) (A) (A) (A) (A) (A) (A) (A)
                 (A) (A) (A) (A) (A) (A) (A) (A) (A) (A) (A) (A)
                 (A) (A) (A) (A) (A) (A) (A) (A) (A) (A) (A) (A)
                 (A) (A) (A) (A) (A) (A) (A) (A) (A) (A) (A) (A)
                 (A) (A) (A) (A) (A) (A) (A) (A) (A) (A) (A) (A)
                 (A) (A) (A) (A) (A) (A) (A) (A) (A) (A) (A) (A)
                 (A) (A) (A) (A) (A) (A) (A) (A) (A) (A) (A)
       Virtual   (A) (A) (A) (A) (A) (A) (A) (A) (A) (A) (A) (A)
                 (A) (A) (A) (A) (A) (A) (A) (A) (A) (A) (A) (A)
                 (A) (A) (A) (A) (A) (A) (A) (A) (A) (A) (A) (A)
                 (A) (A) (A) (A) (A) (A) (A) (A) (A) (A) (A) (A)
                 (A) (A) (A) (A) (A) (A) (A) (A) (A) (A) (A) (A)
                 (A) (A) (A) (A) (A) (A) (A) (A) (A) (A) (A) (A)
                 (A) (A) (A) (A) (A) (A) (A) (A) (A) (A) (A) (A)
                 (A) (A) (A) (A) (A) (A) (A) (A) (A) (A) (A) (A)
                 (A) (A) (A) (A) (A) (A) (A) (A) (A) (A) (A) (A)
                 (A) (A) (A) (A) (A) (A) (A) (A) (A) (A) (A) (A)
                 (A) (A) (A) (A) (A) (A) (A) (A) (A) (A) (A) (A)
                 (A) (A) (A) (A) (A) (A) (A) (A) (A) (A) (A) (A)
                 (A) (A) (A) (A) (A) (A) (A) (A) (A) (A) (A) (A)
                 (A) (A) (A) (A) (A) (A) (A) (A) (A) (A) (A) (A)
                 (A) (A) (A) (A) (A) (A) (A) (A) (A) (A) (A) (A)
                 (A) (A) (A) (A) (A) (A) (A) (A) (A) (A) (A) (A)
                 (A) (A) (A) (A) (A) (A) (A) (A) (A) (A) (A) (A)
                 (A) (A) (A) (A) (A) (A) (A) (A) (A) (A) (A) (A)
                 (A) (A) (A) (A) (A) (A) (A) (A) (A) (A) (A) (A)
                 (A) (A) (A) (A) (A) (A) (A) (A) (A) (A) (A) (A)
                 (A) (A) (A) (A) (A) (A) (A) (A) (A) (A) (A) (A)
                 (A) (A) (A) (A) (A) (A) (A) (A) (A) (A) (A) (A)
                 (A) (A) (A) (A) (A) (A) (A) (A) (A) (A) (A) (A)
                 (A) (A) (A) (A) (A) (A) (A) (A) (A) (A) (A) (A)
                 (A) (A) (A) (A) (A) (A) (A) (A) (A) (A) (A) (A)
                 (A) (A) (A) (A) (A) (A) (A) (A) (A) (A) (A) (A)
                 (A) (A) (A) (A) (A) (A) (A) (A) (A) (A) (A) (A)
                 (A) (A) (A) (A) (A) (A) (A) (A) (A) (A) (A) (A)
                 (A) (A) (A) (A) (A) (A) (A) (A) (A) (A) (A) (A)
                 (A) (A) (A) (A) (A) (A) (A) (A) (A) (A) (A) (A)
                 (A) (A) (A) (A) (A) (A) (A) (A) (A) (A) (A) (A)
                 (A) (A) (A) (A) (A) (A) (A) (A) (A) (A) (A) (A)
                 (A) (A) (A) (A) (A) (A) (A) (A) (A) (A) (A) (A)
                 (A) (A) (A) (A) (A) (A) (A) (A) (A) (A) (A) (A)
                 (A) (A) (A) (A) (A) (A) (A) (A) (A) (A) (A) (A)
                 (A) (A) (A) (A) (A) (A) (A) (A) (A) (A) (A) (A)
                 (A) (A) (A) (A) (A) (A) (A) (A) (A) (A) (A) (A)
                 (A) (A) (A) (A) (A) (A) (A) (A) (A) (A) (A) (A)
                 (A) (A) (A) (A) (A) (A) (A) (A) (A) (A) (A) (A)
                 (A) (A) (A) (A) (A) (A) (A) (A) (A) (A) (A) (A)
                 (A) (A) (A) (A) (A) (A) (A) (A) (A) (A) (A) (A)
                 (A) (A) (A) (A) (A) (A) (A) (A) (A) (A) (A) (A)
                 (A) (A) (A) (A) (A) (A) (A) (A) (A) (A) (A) (A)
                 (A) (A) (A) (A) (A) (A) (A) (A) (A) (A) (A) (A)
                 (A) (A) (A) (A) (A) (A) (A) (A) (A) (A) (A) (A)
                 (A) (A) (A) (A) (A) (A) (A) (A) (A) (A) (A) (A)
                 (A) (A) (A) (A) (A) (A) (A) (A) (A) (A) (A) (A)
                 (A) (A) (A) (A) (A) (A) (A) (A) (A) (A) (A) (A)
                 (A) (A) (A) (A) (A) (A) (A) (A) (A) (A) (A) (A)
                 (A) (A) (A) (A) (A) (A) (A) (A) (A) (A) (A) (A)
                 (A) (A) (A) (A) (A) (A) (A) (A) (A) (A) (A) (A)
                 (A) (A) (A) (A) (A) (A) (A) (A) (A) (A) (A) (A)
                 (A) (A) (A) (A) (A) (A) (A) (A) (A) (A) (A) (A)
                 (A) (A) (A) (A) (A) (A) (A) (A) (A) (A) (A) (A)
                 (A) (A) (A) (A) (A) (A) (A) (A) (A) (A) (A) (A)
                 (A) (A) (A) (A) (A) (A) (A) (A) (A) (A) (A) (A)
                 (A) (A) (A) (A) (A) (A) (A) (A) (A) (A) (A) (A)
                 (A) (A) (A) (A) (A) (A) (A) (A) (A) (A) (A) (A)
                 (A) (A) (A) (A) (A) (A) (A) (A) (A) (A) (A) (A)
                 (A) (A) (A) (A) (A) (A) (A) (A) (A) (A) (A) (A)
                 (A) (A) (A) (A) (A) (A) (A) (A) (A) (A) (A) (A)
                 (A) (A) (A) (A) (A) (A) (A) (A) (A) (A) (A) (A)
                 (A) (A) (A) (A) (A) (A) (A) (A) (A) (A) (A) (A)
                 (A) (A) (A) (A) (A) (A) (A) (A) (A) (A) (A) (A)
                 (A) (A) (A) (A) (A) (A) (A) (A) (A) (A) (A) (A)
                 (A) (A) (A) (A) (A) (A) (A) (A) (A) (A) (A) (A)
                 (A) (A) (A) (A) (A) (A) (A) (A) (A) (A) (A) (A)
                 (A) (A) (A) (A) (A) (A) (A) (A) (A) (A) (A) (A)
                 (A) (A) (A) (A) (A) (A) (A) (A) (A) (A) (A) (A)
                 (A) (A) (A) (A) (A) (A) (A) (A) (A) (A) (A) (A)
                 (A) (A) (A) (A) (A) (A) (A) (A) (A) (A) (A) (A)
                 (A) (A) (A) (A) (A) (A) (A) (A) (A) (A) (A) (A)
                 (A) (A) (A) (A) (A) (A) (A) (A) (A) (A) (A) (A)
                 (A) (A) (A) (A) (A) (A) (A) (A) (A) (A) (A) (A)
                 (A) (A) (A) (A) (A) (A) (A) (A) (A) (A) (A) (A)
                 (A) (A) (A) (A) (A) (A) (A) (A) (A) (A) (A) (A)
                 (A) (A) (A) (A) (A) (A) (A) (A) (A) (A) (A) (A)
                 (A) (A) (A) (A) (A) (A) (A) (A) (A) (A) (A) (A)
                 (A) (A) (A) (A) (A) (A) (A) (A) (A) (A) (A) (A)
                 (A) (A) (A) (A) (A) (A) (A) (A) (A) (A) (A) (A)
                 (A) (A) (A) (A) (A) (A) (A) (A) (A) (A) (A) (A)
                 (A) (A) (A) (A) (A) (A) (A) (A) (A) (A) (A) (A)
                 (A) (A) (A) (A) (A) (A) (A) (A) (A) (A) (A) (A)
                 (A) (A) (A) (A) (A) (A) (A) (A) (A) (A) (A) (A)
                 (A) (A) (A) (A) (A) (A) (A) (A) (A) (A) (A) (A)
                 (A) (A) (A) (A) (A) (A) (A) (A) (A) (A) (A) (A)
                 (A) (A) (A) (A) (A) (A) (A) (A) (A) (A) (A) (A)
                 (A) (A) (A) (A) (A) (A) (A) (A) (A) (A) (A) (A)
                 (A) (A) (A) (A) (A) (A) (A) (A) (A) (A) (A) (A)
                 (A) (A) (A) (A) (A) (A) (A) (A) (A) (A) (A) (A)
                 (A) (A) (A) (A) (A) (A) (A) (A) (A) (A) (A) (A)
                 (A) (A) (A) (A) (A) (A) (A) (A) (A) (A) (A) (A)
                 (A) (A) (A) (A) (A) (A) (A) (A) (A) (A) (A) (A)
                 (A) (A) (A) (A) (A) (A) (A) (A) (A) (A) (A) (A)
                 (A) (A) (A) (A) (A) (A) (A) (A) (A) (A) (A) (A)
                 (A) (A) (A) (A) (A) (A) (A) (A) (A) (A) (A) (A)
                 (A) (A) (A) (A) (A) (A) (A) (A) (A) (A) (A) (A)
                 (A) (A) (A) (A) (A) (A) (A) (A) (A) (A) (A) (A)
                 (A) (A) (A) (A) (A) (A) (A) (A) (A) (A) (A) (A)
                 (A) (A) (A) (A) (A) (A) (A) (A) (A) (A) (A) (A)
                 (A) (A) (A) (A) (A) (A) (A) (A) (A) (A) (A) (A)
                 (A) (A) (A) (A) (A) (A) (A) (A) (A) (A) (A) (A)
                 (A) (A) (A) (A) (A) (A) (A) (A) (A) (A) (A) (A)
                 (A) (A) (A) (A) (A) (A) (A) (A) (A) (A) (A) (A)
                 (A) (A) (A) (A) (A) (A) (A) (A) (A) (A) (A) (A)
                 (A) (A) (A) (A) (A) (A) (A) (A) (A) (A) (A) (A)
                 (A) (A) (A) (A) (A) (A) (A) (A) (A) (A) (A) (A)
                 (A) (A) (A) (A) (A) (A) (A) (A) (A) (A) (A) (A)
                 (A) (A) (A) (A) (A) (A) (A) (A) (A) (A) (A) (A)
                 (A) (A) (A) (A) (A) (A) (A) (A) (A) (A) (A) (A)
                 (A) (A) (A) (A) (A) (A) (A) (A) (A) (A) (A) (A)
                 (A) (A) (A) (A) (A) (A) (A) (A) (A) (A) (A) (A)
                 (A) (A) (A) (A) (A) (A) (A) (A) (A) (A) (A) (A)
                 (A) (A) (A) (A) (A) (A) (A) (A) (A) (A) (A) (A)
                 (A) (A) (A) (A) (A) (A) (A) (A) (A) (A) (A) (A)
                 (A) (A) (A) (A) (A) (A) (A) (A) (A) (A) (A) (A)
                 (A) (A) (A) (A) (A) (A) (A) (A) (A) (A) (A) (A)
                 (A) (A) (A) (A) (A) (A) (A) (A) (A) (A) (A) (A)
                 (A) (A) (A) (A) (A) (A) (A) (A) (A) (A) (A) (A)
                 (A) (A) (A) (A) (A) (A) (A) (A) (A) (A) (A) (A)
                 (A) (A) (A) (A) (A) (A) (A) (A) (A) (A) (A) (A)
                 (A) (A) (A) (A) (A) (A) (A) (A) (A) (A) (A) (A)
                 (A) (A) (A) (A) (A) (A) (A) (A) (A) (A) (A) (A)
                 (A) (A) (A) (A) (A) (A) (A) (A) (A) (A) (A) (A)
                 (A) (A) (A) (A) (A) (A) (A) (A) (A) (A) (A) (A)
                 (A) (A) (A) (A) (A) (A) (A) (A) (A) (A) (A) (A)
                 (A) (A) (A) (A) (A) (A) (A) (A) (A) (A) (A) (A)
                 (A) (A) (A) (A) (A) (A) (A) (A) (A) (A) (A) (A)
                 (A) (A) (A) (A) (A) (A) (A) (A) (A) (A) (A) (A)
                 (A) (A) (A) (A) (A) (A) (A) (A) (A) (A) (A) (A)
                 (A) (A) (A) (A) (A) (A) (A) (A) (A) (A) (A) (A)
                 (A) (A) (A) (A) (A) (A) (A) (A) (A) (A) (A) (A)
                 (A) (A) (A) (A) (A) (A) (A) (A) (A) (A) (A) (A)
                 (A) (A) (A) (A) (A) (A) (A) (A) (A) (A) (A) (A)
                 (A) (A) (A) (A) (A) (A) (A) (A) (A) (A) (A) (A)
                 (A) (A) (A) (A) (A) (A) (A) (A) (A) (A) (A) (A)
                 (A) (A) (A) (A) (A) (A) (A) (A) (A) (A) (A) (A)
                 (A) (A) (A) (A) (A) (A) (A) (A) (A) (A) (A) (A)
                 (A) (A) (A) (A) (A) (A) (A) (A) (A) (A) (A) (A)
                 (A) (A) (A) (A) (A) (A) (A) (A) (A) (A) (A) (A)
                 (A) (A) (A) (A) (A) (A) (A) (A) (A) (A) (A) (A)
                 (A) (A) (A) (A) (A) (A) (A) (A) (A) (A) (A) (A)
                 (A) (A) (A) (A) (A) (A) (A) (A) (A) (A) (A) (A)
                 (A) (A) (A) (A) (A) (A) (A) (A) (A) (A) (A) (A)
                 (A) (A) (A) (A) (A) (A) (A) (A) (A) (A) (A) (A)
                 (A) (A) (A) (A) (A) (A) (A) (A) (A) (A) (A) (A)
                 (A) (A) (A) (A) (A) (A) (A) (A) (A) (A) (A) (A)
                 (A) (A) (A) (A) (A) (A) (A) (A) (A) (A) (A) (A)
                 (A) (A) (A) (A)
 The electronic state is 5-A.
 Alpha  occ. eigenvalues -- -256.33325 -30.14804 -25.97810 -25.96036 -25.95941
 Alpha  occ. eigenvalues --  -19.26534 -19.24927 -19.18550 -19.18355 -14.44192
 Alpha  occ. eigenvalues --  -14.43966 -14.38280 -14.38080 -14.35712 -14.35508
 Alpha  occ. eigenvalues --  -14.35481 -14.35247 -10.35432 -10.35370 -10.27861
 Alpha  occ. eigenvalues --  -10.27399 -10.25393 -10.25327 -10.24623 -10.24334
 Alpha  occ. eigenvalues --  -10.24232 -10.24204 -10.23920 -10.23823 -10.23621
 Alpha  occ. eigenvalues --  -10.23566 -10.22939 -10.22835 -10.22823 -10.22759
 Alpha  occ. eigenvalues --  -10.22567 -10.22349 -10.21979 -10.21893 -10.21882
 Alpha  occ. eigenvalues --  -10.21872 -10.21823 -10.21782 -10.21599 -10.21590
 Alpha  occ. eigenvalues --  -10.21564 -10.21555 -10.21486 -10.21477 -10.21389
 Alpha  occ. eigenvalues --  -10.21350 -10.21257 -10.21082 -10.20995 -10.20778
 Alpha  occ. eigenvalues --  -10.20640 -10.20596 -10.20579 -10.20450  -3.57747
 Alpha  occ. eigenvalues --   -2.36455  -2.32799  -2.32669  -1.16968  -1.16122
 Alpha  occ. eigenvalues --   -1.04717  -1.04493  -1.03429  -1.03150  -0.97372
 Alpha  occ. eigenvalues --   -0.96497  -0.96475  -0.95596  -0.89985  -0.89841
 Alpha  occ. eigenvalues --   -0.83157  -0.82553  -0.82160  -0.81838  -0.81666
 Alpha  occ. eigenvalues --   -0.80489  -0.80264  -0.79788  -0.79629  -0.78067
 Alpha  occ. eigenvalues --   -0.77527  -0.76689  -0.76116  -0.75081  -0.73293
 Alpha  occ. eigenvalues --   -0.71675  -0.71062  -0.70875  -0.70697  -0.70220
 Alpha  occ. eigenvalues --   -0.69026  -0.68959  -0.68461  -0.66044  -0.65490
 Alpha  occ. eigenvalues --   -0.64793  -0.63987  -0.63631  -0.63543  -0.61121
 Alpha  occ. eigenvalues --   -0.61094  -0.60362  -0.59654  -0.58439  -0.58099
 Alpha  occ. eigenvalues --   -0.55341  -0.55079  -0.54853  -0.54074  -0.53833
 Alpha  occ. eigenvalues --   -0.53276  -0.52605  -0.52510  -0.51851  -0.51295
 Alpha  occ. eigenvalues --   -0.51149  -0.49953  -0.49753  -0.49364  -0.49120
 Alpha  occ. eigenvalues --   -0.48726  -0.48161  -0.47707  -0.47173  -0.46928
 Alpha  occ. eigenvalues --   -0.46855  -0.46609  -0.45925  -0.45568  -0.45202
 Alpha  occ. eigenvalues --   -0.44860  -0.44726  -0.43895  -0.43795  -0.43636
 Alpha  occ. eigenvalues --   -0.43498  -0.43252  -0.43175  -0.43017  -0.42659
 Alpha  occ. eigenvalues --   -0.42540  -0.42364  -0.42098  -0.41998  -0.41761
 Alpha  occ. eigenvalues --   -0.41661  -0.41488  -0.41092  -0.40798  -0.40709
 Alpha  occ. eigenvalues --   -0.40515  -0.40153  -0.40126  -0.39792  -0.39721
 Alpha  occ. eigenvalues --   -0.39441  -0.39211  -0.39085  -0.38999  -0.38632
 Alpha  occ. eigenvalues --   -0.38451  -0.38269  -0.37977  -0.37808  -0.37414
 Alpha  occ. eigenvalues --   -0.36978  -0.36719  -0.36495  -0.36237  -0.35874
 Alpha  occ. eigenvalues --   -0.35359  -0.34762  -0.34606  -0.34290  -0.34225
 Alpha  occ. eigenvalues --   -0.33987  -0.33683  -0.33217  -0.32993  -0.32579
 Alpha  occ. eigenvalues --   -0.32260  -0.31777  -0.30795  -0.30209  -0.29285
 Alpha  occ. eigenvalues --   -0.28979  -0.28521  -0.28287  -0.28141  -0.27983
 Alpha  occ. eigenvalues --   -0.27188  -0.26785  -0.23604  -0.23430  -0.22827
 Alpha  occ. eigenvalues --   -0.22161  -0.21995  -0.21879  -0.19009  -0.18778
 Alpha  occ. eigenvalues --   -0.18646  -0.17996
 Alpha virt. eigenvalues --   -0.07512  -0.06975  -0.02325  -0.00808  -0.00355
 Alpha virt. eigenvalues --    0.00192   0.01238   0.01990   0.02669   0.02973
 Alpha virt. eigenvalues --    0.03759   0.04138   0.04707   0.05036   0.05346
 Alpha virt. eigenvalues --    0.05616   0.06013   0.06188   0.06271   0.06888
 Alpha virt. eigenvalues --    0.07379   0.07572   0.07858   0.08084   0.08164
 Alpha virt. eigenvalues --    0.08417   0.08611   0.08762   0.09369   0.09832
 Alpha virt. eigenvalues --    0.10037   0.10306   0.10515   0.10815   0.11004
 Alpha virt. eigenvalues --    0.11129   0.11359   0.12052   0.12137   0.12310
 Alpha virt. eigenvalues --    0.12416   0.12524   0.12658   0.13007   0.13107
 Alpha virt. eigenvalues --    0.13359   0.13580   0.13816   0.14042   0.14189
 Alpha virt. eigenvalues --    0.14700   0.14714   0.14849   0.15167   0.15291
 Alpha virt. eigenvalues --    0.15409   0.15596   0.15657   0.15743   0.15891
 Alpha virt. eigenvalues --    0.15980   0.16138   0.16263   0.16369   0.16707
 Alpha virt. eigenvalues --    0.16975   0.17470   0.17550   0.17758   0.17896
 Alpha virt. eigenvalues --    0.18023   0.18198   0.18365   0.18686   0.18819
 Alpha virt. eigenvalues --    0.19217   0.19382   0.19729   0.20370   0.20495
 Alpha virt. eigenvalues --    0.20726   0.20776   0.21151   0.21298   0.21350
 Alpha virt. eigenvalues --    0.21446   0.21713   0.21843   0.22258   0.22560
 Alpha virt. eigenvalues --    0.22763   0.22834   0.23041   0.23147   0.23366
 Alpha virt. eigenvalues --    0.23446   0.23814   0.24094   0.24326   0.24632
 Alpha virt. eigenvalues --    0.24750   0.25055   0.25058   0.25387   0.25572
 Alpha virt. eigenvalues --    0.25686   0.25917   0.25987   0.26152   0.26353
 Alpha virt. eigenvalues --    0.26419   0.26702   0.26927   0.27180   0.27484
 Alpha virt. eigenvalues --    0.27673   0.27953   0.28014   0.28030   0.28371
 Alpha virt. eigenvalues --    0.28623   0.28696   0.28892   0.29314   0.29442
 Alpha virt. eigenvalues --    0.29512   0.29645   0.29798   0.30233   0.30363
 Alpha virt. eigenvalues --    0.30720   0.30990   0.31205   0.31270   0.31398
 Alpha virt. eigenvalues --    0.31766   0.31990   0.32394   0.32579   0.32684
 Alpha virt. eigenvalues --    0.33045   0.33139   0.33259   0.33484   0.33996
 Alpha virt. eigenvalues --    0.34162   0.34389   0.34767   0.34986   0.35080
 Alpha virt. eigenvalues --    0.35120   0.35340   0.35411   0.35675   0.36103
 Alpha virt. eigenvalues --    0.36275   0.36479   0.36858   0.37031   0.37450
 Alpha virt. eigenvalues --    0.37479   0.37564   0.37873   0.37980   0.38101
 Alpha virt. eigenvalues --    0.38393   0.38428   0.38851   0.38892   0.39046
 Alpha virt. eigenvalues --    0.39355   0.39358   0.39591   0.39785   0.39899
 Alpha virt. eigenvalues --    0.40038   0.40264   0.40464   0.40624   0.40829
 Alpha virt. eigenvalues --    0.40960   0.41053   0.41206   0.41442   0.41628
 Alpha virt. eigenvalues --    0.41733   0.41919   0.42189   0.42376   0.42617
 Alpha virt. eigenvalues --    0.42717   0.43094   0.43119   0.43417   0.43571
 Alpha virt. eigenvalues --    0.43754   0.43890   0.44061   0.44258   0.44330
 Alpha virt. eigenvalues --    0.44591   0.44828   0.44967   0.45191   0.45395
 Alpha virt. eigenvalues --    0.45487   0.45589   0.45809   0.46143   0.46187
 Alpha virt. eigenvalues --    0.46437   0.46638   0.46837   0.46884   0.46929
 Alpha virt. eigenvalues --    0.46973   0.47159   0.47550   0.47598   0.47748
 Alpha virt. eigenvalues --    0.47885   0.48161   0.48238   0.48476   0.48701
 Alpha virt. eigenvalues --    0.48884   0.48927   0.48983   0.49351   0.49443
 Alpha virt. eigenvalues --    0.49563   0.49644   0.49822   0.49880   0.49986
 Alpha virt. eigenvalues --    0.50377   0.50576   0.50681   0.50793   0.50986
 Alpha virt. eigenvalues --    0.51069   0.51406   0.51432   0.51775   0.51947
 Alpha virt. eigenvalues --    0.52143   0.52301   0.52459   0.52878   0.52978
 Alpha virt. eigenvalues --    0.53072   0.53233   0.53503   0.53737   0.54000
 Alpha virt. eigenvalues --    0.54170   0.54393   0.54561   0.54851   0.54955
 Alpha virt. eigenvalues --    0.55142   0.55466   0.55514   0.55722   0.56102
 Alpha virt. eigenvalues --    0.56238   0.56494   0.56815   0.57063   0.57097
 Alpha virt. eigenvalues --    0.57500   0.57682   0.57743   0.57822   0.58199
 Alpha virt. eigenvalues --    0.58387   0.58730   0.58826   0.58999   0.59107
 Alpha virt. eigenvalues --    0.59295   0.59434   0.59968   0.60093   0.60258
 Alpha virt. eigenvalues --    0.60398   0.60669   0.61032   0.61117   0.61505
 Alpha virt. eigenvalues --    0.61609   0.61839   0.62055   0.62363   0.62762
 Alpha virt. eigenvalues --    0.62871   0.62942   0.63358   0.63484   0.63587
 Alpha virt. eigenvalues --    0.63957   0.64016   0.64080   0.64574   0.64649
 Alpha virt. eigenvalues --    0.65103   0.65230   0.65585   0.65931   0.66085
 Alpha virt. eigenvalues --    0.66238   0.66600   0.66804   0.66958   0.67381
 Alpha virt. eigenvalues --    0.67807   0.68158   0.68327   0.68580   0.68845
 Alpha virt. eigenvalues --    0.69029   0.69191   0.69277   0.69793   0.70146
 Alpha virt. eigenvalues --    0.70613   0.70784   0.70884   0.71043   0.71581
 Alpha virt. eigenvalues --    0.71681   0.71704   0.72052   0.72500   0.72802
 Alpha virt. eigenvalues --    0.72857   0.73261   0.73665   0.73769   0.74043
 Alpha virt. eigenvalues --    0.74682   0.74846   0.75168   0.75622   0.75717
 Alpha virt. eigenvalues --    0.75866   0.76102   0.76511   0.76654   0.76884
 Alpha virt. eigenvalues --    0.77191   0.77319   0.77873   0.77986   0.78174
 Alpha virt. eigenvalues --    0.78605   0.78762   0.78851   0.79311   0.79430
 Alpha virt. eigenvalues --    0.79810   0.80007   0.80376   0.80635   0.81097
 Alpha virt. eigenvalues --    0.81174   0.81606   0.82001   0.82128   0.82331
 Alpha virt. eigenvalues --    0.82881   0.83261   0.83746   0.83849   0.84098
 Alpha virt. eigenvalues --    0.84438   0.84642   0.84988   0.85290   0.85726
 Alpha virt. eigenvalues --    0.85927   0.86099   0.86152   0.86440   0.86727
 Alpha virt. eigenvalues --    0.87046   0.87572   0.87970   0.88067   0.88319
 Alpha virt. eigenvalues --    0.88944   0.89162   0.89307   0.89585   0.89990
 Alpha virt. eigenvalues --    0.90312   0.90485   0.91021   0.91318   0.91523
 Alpha virt. eigenvalues --    0.91713   0.91944   0.92062   0.92274   0.93022
 Alpha virt. eigenvalues --    0.93166   0.93455   0.93487   0.93760   0.93893
 Alpha virt. eigenvalues --    0.94370   0.94624   0.94852   0.94996   0.95160
 Alpha virt. eigenvalues --    0.95603   0.95708   0.95813   0.95971   0.96238
 Alpha virt. eigenvalues --    0.96578   0.96758   0.97276   0.97321   0.97588
 Alpha virt. eigenvalues --    0.97889   0.98380   0.98728   0.98856   0.98999
 Alpha virt. eigenvalues --    0.99345   0.99599   0.99883   1.00136   1.00570
 Alpha virt. eigenvalues --    1.00806   1.01233   1.01336   1.01509   1.01752
 Alpha virt. eigenvalues --    1.01931   1.02159   1.02470   1.02692   1.03123
 Alpha virt. eigenvalues --    1.03240   1.03679   1.03871   1.04001   1.04373
 Alpha virt. eigenvalues --    1.04690   1.04813   1.04922   1.05297   1.05439
 Alpha virt. eigenvalues --    1.05711   1.06091   1.06319   1.06655   1.07517
 Alpha virt. eigenvalues --    1.07529   1.07712   1.08017   1.08443   1.08572
 Alpha virt. eigenvalues --    1.08781   1.09610   1.09660   1.09909   1.10240
 Alpha virt. eigenvalues --    1.10715   1.11122   1.11416   1.11964   1.12088
 Alpha virt. eigenvalues --    1.12170   1.12880   1.13057   1.13678   1.14220
 Alpha virt. eigenvalues --    1.14323   1.14643   1.15284   1.15427   1.15790
 Alpha virt. eigenvalues --    1.15936   1.16627   1.16746   1.17101   1.17661
 Alpha virt. eigenvalues --    1.17789   1.17931   1.18329   1.18854   1.19187
 Alpha virt. eigenvalues --    1.19359   1.19494   1.19943   1.20540   1.20918
 Alpha virt. eigenvalues --    1.21042   1.21186   1.21628   1.21834   1.22458
 Alpha virt. eigenvalues --    1.22586   1.22624   1.23175   1.23686   1.23928
 Alpha virt. eigenvalues --    1.24090   1.24456   1.24842   1.24927   1.25677
 Alpha virt. eigenvalues --    1.25764   1.26069   1.26172   1.26564   1.26741
 Alpha virt. eigenvalues --    1.27206   1.27316   1.27533   1.27930   1.28252
 Alpha virt. eigenvalues --    1.28678   1.28807   1.29081   1.29646   1.29814
 Alpha virt. eigenvalues --    1.30168   1.30615   1.30774   1.31181   1.31680
 Alpha virt. eigenvalues --    1.32000   1.32598   1.32693   1.32919   1.33595
 Alpha virt. eigenvalues --    1.33731   1.33876   1.34481   1.35226   1.35436
 Alpha virt. eigenvalues --    1.35748   1.35791   1.36138   1.36711   1.36987
 Alpha virt. eigenvalues --    1.37189   1.37690   1.37877   1.38262   1.38494
 Alpha virt. eigenvalues --    1.38929   1.39075   1.39414   1.39742   1.40223
 Alpha virt. eigenvalues --    1.40364   1.40415   1.41084   1.41495   1.41606
 Alpha virt. eigenvalues --    1.42114   1.42633   1.42834   1.43239   1.43610
 Alpha virt. eigenvalues --    1.44037   1.44713   1.45029   1.45265   1.45628
 Alpha virt. eigenvalues --    1.46175   1.46795   1.46804   1.47299   1.47636
 Alpha virt. eigenvalues --    1.47694   1.47955   1.48165   1.48252   1.48777
 Alpha virt. eigenvalues --    1.49068   1.49242   1.49437   1.49724   1.50092
 Alpha virt. eigenvalues --    1.50152   1.50298   1.50832   1.51493   1.51715
 Alpha virt. eigenvalues --    1.52153   1.52449   1.52563   1.53017   1.53407
 Alpha virt. eigenvalues --    1.53694   1.53720   1.53910   1.54030   1.54335
 Alpha virt. eigenvalues --    1.54708   1.54953   1.55309   1.55516   1.55593
 Alpha virt. eigenvalues --    1.55876   1.56370   1.56585   1.56637   1.56710
 Alpha virt. eigenvalues --    1.57045   1.57387   1.57718   1.57859   1.57943
 Alpha virt. eigenvalues --    1.58133   1.58680   1.59086   1.59155   1.59368
 Alpha virt. eigenvalues --    1.59611   1.59722   1.60072   1.60261   1.60549
 Alpha virt. eigenvalues --    1.60601   1.60932   1.61355   1.61562   1.61742
 Alpha virt. eigenvalues --    1.62127   1.62494   1.62580   1.62835   1.63139
 Alpha virt. eigenvalues --    1.63232   1.63587   1.63745   1.64105   1.64568
 Alpha virt. eigenvalues --    1.64721   1.64934   1.65124   1.65284   1.65496
 Alpha virt. eigenvalues --    1.65847   1.66349   1.66711   1.66854   1.66989
 Alpha virt. eigenvalues --    1.67109   1.67397   1.67707   1.67929   1.68335
 Alpha virt. eigenvalues --    1.68637   1.68751   1.69219   1.69396   1.69598
 Alpha virt. eigenvalues --    1.70050   1.70451   1.70639   1.71306   1.71535
 Alpha virt. eigenvalues --    1.71724   1.72012   1.72519   1.72679   1.72887
 Alpha virt. eigenvalues --    1.73040   1.73141   1.73447   1.73530   1.73862
 Alpha virt. eigenvalues --    1.74517   1.74812   1.75178   1.75452   1.75824
 Alpha virt. eigenvalues --    1.76171   1.76931   1.77014   1.77391   1.77498
 Alpha virt. eigenvalues --    1.77650   1.78619   1.78946   1.79164   1.79828
 Alpha virt. eigenvalues --    1.80192   1.80480   1.80648   1.80789   1.81208
 Alpha virt. eigenvalues --    1.81714   1.82047   1.82237   1.82760   1.83190
 Alpha virt. eigenvalues --    1.83463   1.83643   1.84077   1.84198   1.84568
 Alpha virt. eigenvalues --    1.84856   1.85185   1.85502   1.85847   1.86031
 Alpha virt. eigenvalues --    1.86041   1.86794   1.87029   1.87167   1.87746
 Alpha virt. eigenvalues --    1.88031   1.88581   1.88839   1.89331   1.89564
 Alpha virt. eigenvalues --    1.89714   1.89801   1.90735   1.90924   1.91404
 Alpha virt. eigenvalues --    1.91533   1.91906   1.92226   1.92392   1.93247
 Alpha virt. eigenvalues --    1.93420   1.93766   1.94185   1.94807   1.94994
 Alpha virt. eigenvalues --    1.95419   1.95908   1.96145   1.96336   1.96813
 Alpha virt. eigenvalues --    1.97186   1.97365   1.97759   1.97864   1.98164
 Alpha virt. eigenvalues --    1.98750   1.98897   1.99112   1.99697   1.99878
 Alpha virt. eigenvalues --    2.00406   2.00680   2.00767   2.01399   2.01721
 Alpha virt. eigenvalues --    2.02097   2.02134   2.02737   2.03045   2.03579
 Alpha virt. eigenvalues --    2.03801   2.04026   2.04423   2.04605   2.04761
 Alpha virt. eigenvalues --    2.04835   2.05731   2.06071   2.06752   2.06778
 Alpha virt. eigenvalues --    2.07152   2.07343   2.07947   2.08420   2.08755
 Alpha virt. eigenvalues --    2.09109   2.09152   2.09649   2.09907   2.10663
 Alpha virt. eigenvalues --    2.10893   2.11183   2.11832   2.12101   2.12267
 Alpha virt. eigenvalues --    2.12738   2.13075   2.13434   2.13516   2.13998
 Alpha virt. eigenvalues --    2.14246   2.14643   2.15338   2.15609   2.15976
 Alpha virt. eigenvalues --    2.16178   2.16436   2.16609   2.16870   2.17349
 Alpha virt. eigenvalues --    2.17473   2.17976   2.18453   2.18585   2.18979
 Alpha virt. eigenvalues --    2.19384   2.19745   2.19898   2.20303   2.20544
 Alpha virt. eigenvalues --    2.21083   2.21254   2.21538   2.22070   2.22222
 Alpha virt. eigenvalues --    2.22626   2.23056   2.23238   2.23532   2.24447
 Alpha virt. eigenvalues --    2.24509   2.25176   2.25488   2.25933   2.26254
 Alpha virt. eigenvalues --    2.26282   2.26867   2.27334   2.27456   2.27844
 Alpha virt. eigenvalues --    2.28245   2.28925   2.29027   2.29483   2.30203
 Alpha virt. eigenvalues --    2.30420   2.30605   2.30845   2.31085   2.31269
 Alpha virt. eigenvalues --    2.31582   2.31961   2.32211   2.32764   2.33185
 Alpha virt. eigenvalues --    2.33415   2.33608   2.34400   2.34569   2.34880
 Alpha virt. eigenvalues --    2.35232   2.35703   2.36084   2.36243   2.36524
 Alpha virt. eigenvalues --    2.37140   2.37379   2.37585   2.38021   2.38669
 Alpha virt. eigenvalues --    2.38778   2.38920   2.39489   2.39665   2.40166
 Alpha virt. eigenvalues --    2.40458   2.40864   2.41018   2.41211   2.41778
 Alpha virt. eigenvalues --    2.41815   2.42076   2.42255   2.42750   2.42846
 Alpha virt. eigenvalues --    2.43357   2.43788   2.43862   2.43952   2.45061
 Alpha virt. eigenvalues --    2.45482   2.45918   2.46091   2.46741   2.46910
 Alpha virt. eigenvalues --    2.47035   2.48038   2.48484   2.48531   2.48758
 Alpha virt. eigenvalues --    2.49442   2.49923   2.50001   2.50578   2.50900
 Alpha virt. eigenvalues --    2.51024   2.51509   2.52000   2.52716   2.52756
 Alpha virt. eigenvalues --    2.53170   2.53497   2.53777   2.54095   2.54295
 Alpha virt. eigenvalues --    2.54790   2.55079   2.55417   2.55775   2.56059
 Alpha virt. eigenvalues --    2.56440   2.56516   2.56816   2.57106   2.57373
 Alpha virt. eigenvalues --    2.57616   2.57819   2.58169   2.58390   2.58685
 Alpha virt. eigenvalues --    2.58827   2.58853   2.59069   2.59628   2.59931
 Alpha virt. eigenvalues --    2.60245   2.60316   2.60918   2.61105   2.61487
 Alpha virt. eigenvalues --    2.61732   2.61908   2.62338   2.62391   2.63065
 Alpha virt. eigenvalues --    2.63473   2.63828   2.63894   2.64059   2.64342
 Alpha virt. eigenvalues --    2.64652   2.65035   2.65185   2.65573   2.65860
 Alpha virt. eigenvalues --    2.66192   2.66609   2.66793   2.67207   2.67897
 Alpha virt. eigenvalues --    2.68110   2.68165   2.68823   2.68989   2.69300
 Alpha virt. eigenvalues --    2.69637   2.70212   2.70266   2.70567   2.70623
 Alpha virt. eigenvalues --    2.70990   2.71377   2.71617   2.71789   2.72205
 Alpha virt. eigenvalues --    2.72403   2.72722   2.73238   2.73377   2.73693
 Alpha virt. eigenvalues --    2.74285   2.74493   2.74796   2.75098   2.75205
 Alpha virt. eigenvalues --    2.75844   2.76051   2.76763   2.77122   2.77335
 Alpha virt. eigenvalues --    2.77983   2.78153   2.78437   2.78675   2.79076
 Alpha virt. eigenvalues --    2.79293   2.79511   2.79722   2.80256   2.80326
 Alpha virt. eigenvalues --    2.80983   2.81414   2.81760   2.82082   2.83039
 Alpha virt. eigenvalues --    2.83233   2.83409   2.84040   2.84368   2.84849
 Alpha virt. eigenvalues --    2.84930   2.85466   2.85633   2.85855   2.86101
 Alpha virt. eigenvalues --    2.86832   2.87239   2.87467   2.87805   2.87988
 Alpha virt. eigenvalues --    2.88455   2.88586   2.88877   2.89279   2.89546
 Alpha virt. eigenvalues --    2.90141   2.90397   2.90551   2.90654   2.90787
 Alpha virt. eigenvalues --    2.91279   2.91369   2.91981   2.92431   2.92655
 Alpha virt. eigenvalues --    2.92743   2.92986   2.93291   2.93587   2.93923
 Alpha virt. eigenvalues --    2.94143   2.94535   2.94665   2.95218   2.95393
 Alpha virt. eigenvalues --    2.95877   2.96158   2.96351   2.96510   2.96898
 Alpha virt. eigenvalues --    2.97346   2.97618   2.97936   2.98106   2.98511
 Alpha virt. eigenvalues --    2.98639   2.99048   2.99390   2.99675   2.99912
 Alpha virt. eigenvalues --    3.00094   3.00394   3.00669   3.01281   3.01424
 Alpha virt. eigenvalues --    3.01663   3.01787   3.02262   3.02477   3.02859
 Alpha virt. eigenvalues --    3.03139   3.03265   3.03689   3.03758   3.04393
 Alpha virt. eigenvalues --    3.04615   3.05033   3.05142   3.05195   3.05639
 Alpha virt. eigenvalues --    3.05984   3.06102   3.06280   3.06656   3.06885
 Alpha virt. eigenvalues --    3.07240   3.07347   3.07806   3.07983   3.08506
 Alpha virt. eigenvalues --    3.08831   3.09036   3.09336   3.09482   3.09795
 Alpha virt. eigenvalues --    3.10261   3.10593   3.10702   3.10889   3.11143
 Alpha virt. eigenvalues --    3.11313   3.11889   3.12109   3.12439   3.12575
 Alpha virt. eigenvalues --    3.12795   3.12995   3.13437   3.13518   3.13885
 Alpha virt. eigenvalues --    3.14059   3.14299   3.14516   3.15182   3.15413
 Alpha virt. eigenvalues --    3.15556   3.15846   3.15912   3.16071   3.16688
 Alpha virt. eigenvalues --    3.16863   3.17467   3.17733   3.17757   3.17979
 Alpha virt. eigenvalues --    3.18158   3.18176   3.18578   3.18720   3.19080
 Alpha virt. eigenvalues --    3.19256   3.19509   3.19779   3.19837   3.20136
 Alpha virt. eigenvalues --    3.20599   3.20750   3.20814   3.20918   3.21391
 Alpha virt. eigenvalues --    3.21584   3.21827   3.22134   3.22435   3.22758
 Alpha virt. eigenvalues --    3.23040   3.23074   3.23446   3.23720   3.23879
 Alpha virt. eigenvalues --    3.24140   3.24322   3.24686   3.24984   3.25090
 Alpha virt. eigenvalues --    3.25401   3.25736   3.25865   3.26012   3.26550
 Alpha virt. eigenvalues --    3.26721   3.26807   3.26974   3.27198   3.27275
 Alpha virt. eigenvalues --    3.27569   3.27706   3.28214   3.28399   3.28438
 Alpha virt. eigenvalues --    3.28873   3.29046   3.29346   3.29616   3.29818
 Alpha virt. eigenvalues --    3.30020   3.30456   3.30596   3.30745   3.31038
 Alpha virt. eigenvalues --    3.31160   3.31560   3.31833   3.31990   3.32194
 Alpha virt. eigenvalues --    3.32780   3.33063   3.33327   3.33436   3.33510
 Alpha virt. eigenvalues --    3.33740   3.33886   3.34556   3.34778   3.34974
 Alpha virt. eigenvalues --    3.35227   3.35498   3.35630   3.35883   3.36084
 Alpha virt. eigenvalues --    3.36190   3.36667   3.36774   3.37070   3.37145
 Alpha virt. eigenvalues --    3.37402   3.37721   3.37990   3.38224   3.38411
 Alpha virt. eigenvalues --    3.38702   3.38836   3.39217   3.39478   3.39694
 Alpha virt. eigenvalues --    3.39769   3.40114   3.40613   3.40860   3.41226
 Alpha virt. eigenvalues --    3.41354   3.41736   3.41938   3.42367   3.42541
 Alpha virt. eigenvalues --    3.42720   3.42884   3.43237   3.43547   3.43758
 Alpha virt. eigenvalues --    3.43807   3.44328   3.44892   3.44966   3.45159
 Alpha virt. eigenvalues --    3.45239   3.45550   3.45791   3.45973   3.46545
 Alpha virt. eigenvalues --    3.46779   3.46933   3.47410   3.47551   3.47922
 Alpha virt. eigenvalues --    3.48001   3.48370   3.48630   3.49041   3.49364
 Alpha virt. eigenvalues --    3.49464   3.49645   3.50152   3.50365   3.50694
 Alpha virt. eigenvalues --    3.50906   3.51313   3.51739   3.52046   3.52408
 Alpha virt. eigenvalues --    3.52603   3.52801   3.52979   3.53364   3.53897
 Alpha virt. eigenvalues --    3.54181   3.54308   3.54673   3.55043   3.55335
 Alpha virt. eigenvalues --    3.55818   3.56221   3.56585   3.57145   3.57163
 Alpha virt. eigenvalues --    3.57503   3.57688   3.58097   3.58150   3.58744
 Alpha virt. eigenvalues --    3.59222   3.59451   3.59622   3.60498   3.60580
 Alpha virt. eigenvalues --    3.61043   3.61605   3.61734   3.62088   3.62309
 Alpha virt. eigenvalues --    3.62424   3.63117   3.63306   3.63471   3.63858
 Alpha virt. eigenvalues --    3.64402   3.64740   3.64935   3.65396   3.65858
 Alpha virt. eigenvalues --    3.66196   3.66431   3.66756   3.67105   3.67261
 Alpha virt. eigenvalues --    3.67839   3.68013   3.68479   3.69248   3.69658
 Alpha virt. eigenvalues --    3.69753   3.70153   3.70553   3.70747   3.71101
 Alpha virt. eigenvalues --    3.71391   3.71790   3.71947   3.72291   3.72685
 Alpha virt. eigenvalues --    3.73221   3.73642   3.74016   3.74181   3.74447
 Alpha virt. eigenvalues --    3.74821   3.74939   3.75124   3.75217   3.75644
 Alpha virt. eigenvalues --    3.76151   3.76409   3.76903   3.77208   3.77404
 Alpha virt. eigenvalues --    3.77945   3.78056   3.78378   3.79219   3.79963
 Alpha virt. eigenvalues --    3.80223   3.81144   3.81535   3.82414   3.82678
 Alpha virt. eigenvalues --    3.83934   3.84399   3.84712   3.85180   3.85629
 Alpha virt. eigenvalues --    3.85887   3.86187   3.86477   3.86957   3.87420
 Alpha virt. eigenvalues --    3.88091   3.88489   3.88816   3.89306   3.89479
 Alpha virt. eigenvalues --    3.90142   3.90394   3.90466   3.91166   3.91444
 Alpha virt. eigenvalues --    3.91678   3.92385   3.92573   3.93219   3.93736
 Alpha virt. eigenvalues --    3.93829   3.94032   3.94368   3.94991   3.95857
 Alpha virt. eigenvalues --    3.96206   3.96501   3.96656   3.97199   3.97546
 Alpha virt. eigenvalues --    3.97722   3.97795   3.98534   3.98851   3.99640
 Alpha virt. eigenvalues --    4.00497   4.00849   4.01393   4.02090   4.02452
 Alpha virt. eigenvalues --    4.02927   4.03308   4.03649   4.04482   4.04778
 Alpha virt. eigenvalues --    4.05259   4.05859   4.06242   4.06801   4.07058
 Alpha virt. eigenvalues --    4.07779   4.08058   4.09140   4.09410   4.10448
 Alpha virt. eigenvalues --    4.10600   4.11072   4.11121   4.11615   4.12131
 Alpha virt. eigenvalues --    4.12500   4.12801   4.13395   4.13689   4.14299
 Alpha virt. eigenvalues --    4.14774   4.15132   4.15558   4.16099   4.16703
 Alpha virt. eigenvalues --    4.17238   4.17478   4.17890   4.18908   4.19706
 Alpha virt. eigenvalues --    4.19872   4.20412   4.20667   4.21370   4.21679
 Alpha virt. eigenvalues --    4.22079   4.22933   4.23292   4.24134   4.24271
 Alpha virt. eigenvalues --    4.25104   4.25564   4.25792   4.26201   4.26641
 Alpha virt. eigenvalues --    4.27037   4.27118   4.27604   4.28215   4.28929
 Alpha virt. eigenvalues --    4.29364   4.29768   4.30015   4.30353   4.30733
 Alpha virt. eigenvalues --    4.31282   4.31578   4.32143   4.32469   4.32951
 Alpha virt. eigenvalues --    4.33763   4.34055   4.34268   4.34762   4.35027
 Alpha virt. eigenvalues --    4.35762   4.36064   4.36300   4.36939   4.37701
 Alpha virt. eigenvalues --    4.38301   4.38664   4.39481   4.39960   4.40021
 Alpha virt. eigenvalues --    4.40709   4.41025   4.41505   4.42142   4.42591
 Alpha virt. eigenvalues --    4.43517   4.43997   4.44259   4.45255   4.45341
 Alpha virt. eigenvalues --    4.45902   4.46151   4.47300   4.47339   4.47864
 Alpha virt. eigenvalues --    4.48526   4.48890   4.49514   4.50601   4.50865
 Alpha virt. eigenvalues --    4.51760   4.52133   4.53550   4.54352   4.55413
 Alpha virt. eigenvalues --    4.55661   4.55955   4.56322   4.57185   4.57446
 Alpha virt. eigenvalues --    4.58841   4.59049   4.59368   4.59802   4.60910
 Alpha virt. eigenvalues --    4.60995   4.61106   4.61495   4.62355   4.63296
 Alpha virt. eigenvalues --    4.63893   4.64335   4.64670   4.65909   4.66553
 Alpha virt. eigenvalues --    4.66942   4.67684   4.67704   4.68321   4.68889
 Alpha virt. eigenvalues --    4.70223   4.70508   4.71236   4.71676   4.72110
 Alpha virt. eigenvalues --    4.72291   4.72776   4.73166   4.73461   4.74144
 Alpha virt. eigenvalues --    4.75441   4.76043   4.76962   4.77231   4.77633
 Alpha virt. eigenvalues --    4.78151   4.79010   4.79662   4.80178   4.80766
 Alpha virt. eigenvalues --    4.81037   4.81658   4.82055   4.82280   4.83328
 Alpha virt. eigenvalues --    4.84520   4.85181   4.85685   4.85836   4.86676
 Alpha virt. eigenvalues --    4.87286   4.87498   4.87714   4.88454   4.89762
 Alpha virt. eigenvalues --    4.90608   4.91040   4.91508   4.92800   4.93453
 Alpha virt. eigenvalues --    4.94191   4.94412   4.94820   4.95298   4.95860
 Alpha virt. eigenvalues --    4.95875   4.96926   4.97841   4.98202   4.99244
 Alpha virt. eigenvalues --    4.99391   5.00187   5.00779   5.01754   5.02064
 Alpha virt. eigenvalues --    5.03330   5.03759   5.04239   5.04775   5.05493
 Alpha virt. eigenvalues --    5.06472   5.06740   5.06940   5.07936   5.08913
 Alpha virt. eigenvalues --    5.10107   5.10470   5.12114   5.12612   5.13217
 Alpha virt. eigenvalues --    5.14531   5.15514   5.16243   5.18001   5.18626
 Alpha virt. eigenvalues --    5.18801   5.19530   5.19819   5.20979   5.21134
 Alpha virt. eigenvalues --    5.21303   5.22131   5.22201   5.23358   5.23729
 Alpha virt. eigenvalues --    5.24163   5.24783   5.25288   5.25492   5.26198
 Alpha virt. eigenvalues --    5.26975   5.27628   5.29248   5.29802   5.30977
 Alpha virt. eigenvalues --    5.31932   5.32972   5.33626   5.33822   5.34699
 Alpha virt. eigenvalues --    5.37292   5.37621   5.38171   5.38634   5.39456
 Alpha virt. eigenvalues --    5.39856   5.41164   5.41598   5.42276   5.42986
 Alpha virt. eigenvalues --    5.43441   5.43927   5.44661   5.44943   5.45636
 Alpha virt. eigenvalues --    5.46123   5.46887   5.48321   5.49564   5.51018
 Alpha virt. eigenvalues --    5.51523   5.51701   5.55095   5.55200   5.56673
 Alpha virt. eigenvalues --    5.57052   5.58006   5.58646   5.58796   5.59542
 Alpha virt. eigenvalues --    5.60460   5.60897   5.61435   5.63199   5.64065
 Alpha virt. eigenvalues --    5.65106   5.66567   5.67747   5.68339   5.68894
 Alpha virt. eigenvalues --    5.70706   5.71046   5.71911   5.72375   5.73939
 Alpha virt. eigenvalues --    5.75393   5.76964   5.80777   5.81373   5.81894
 Alpha virt. eigenvalues --    5.82194   5.83958   5.90821   5.92799   5.93286
 Alpha virt. eigenvalues --    5.96086   5.96719   5.97959   6.00488   6.02178
 Alpha virt. eigenvalues --    6.02840   6.03239   6.04443   6.05887   6.06009
 Alpha virt. eigenvalues --    6.07065   6.07942   6.09515   6.10164   6.10651
 Alpha virt. eigenvalues --    6.12422   6.14650   6.17132   6.18142   6.19246
 Alpha virt. eigenvalues --    6.21669   6.22951   6.27194   6.27249   6.31820
 Alpha virt. eigenvalues --    6.32754   6.33191   6.35731   6.39155   6.40508
 Alpha virt. eigenvalues --    6.41042   6.44420   6.47046   6.48794   6.50404
 Alpha virt. eigenvalues --    6.52754   6.66216   6.67750   6.74865   6.76739
 Alpha virt. eigenvalues --    6.84493   6.86147   6.93292   6.94523   6.98068
 Alpha virt. eigenvalues --    7.08016   7.12436   7.13914   7.18646   7.19084
 Alpha virt. eigenvalues --    7.26975   7.27959  22.29938  22.31285  22.47804
 Alpha virt. eigenvalues --   22.48099  22.51168  22.52427  22.53059  22.55960
 Alpha virt. eigenvalues --   22.60240  22.62489  22.66863  22.70108  22.71573
 Alpha virt. eigenvalues --   22.78220  22.78667  22.82487  22.90233  22.91850
 Alpha virt. eigenvalues --   22.94547  22.96079  22.98775  23.00732  23.02489
 Alpha virt. eigenvalues --   23.07568  23.08554  23.10346  23.26581  23.28700
 Alpha virt. eigenvalues --   23.30068  23.32270  23.35084  23.36885  23.46543
 Alpha virt. eigenvalues --   23.48350  23.51306  23.52922  23.57270  23.59924
 Alpha virt. eigenvalues --   23.65957  23.71020  23.72513  23.80072  32.44837
 Alpha virt. eigenvalues --   32.48046  32.75097  32.85874  32.99545  33.12718
 Alpha virt. eigenvalues --   33.18078  33.41002  43.93655  43.96725  43.97588
 Alpha virt. eigenvalues --   43.98235
  Beta  occ. eigenvalues -- -256.33195 -30.05950 -25.89688 -25.88913 -25.88865
  Beta  occ. eigenvalues --  -19.26534 -19.24927 -19.18550 -19.18355 -14.44178
  Beta  occ. eigenvalues --  -14.43955 -14.38098 -14.37883 -14.35484 -14.35277
  Beta  occ. eigenvalues --  -14.35241 -14.35008 -10.35432 -10.35370 -10.27841
  Beta  occ. eigenvalues --  -10.27391 -10.25386 -10.25324 -10.24599 -10.24310
  Beta  occ. eigenvalues --  -10.24237 -10.24195 -10.23988 -10.23911 -10.23697
  Beta  occ. eigenvalues --  -10.23650 -10.22922 -10.22839 -10.22825 -10.22758
  Beta  occ. eigenvalues --  -10.22572 -10.22348 -10.21978 -10.21977 -10.21850
  Beta  occ. eigenvalues --  -10.21827 -10.21822 -10.21760 -10.21663 -10.21660
  Beta  occ. eigenvalues --  -10.21553 -10.21542 -10.21531 -10.21486 -10.21440
  Beta  occ. eigenvalues --  -10.21318 -10.21308 -10.21104 -10.20952 -10.20772
  Beta  occ. eigenvalues --  -10.20640 -10.20591 -10.20571 -10.20444  -3.36495
  Beta  occ. eigenvalues --   -2.11326  -2.11116  -2.11032  -1.16967  -1.16121
  Beta  occ. eigenvalues --   -1.04626  -1.04399  -1.03428  -1.03150  -0.97197
  Beta  occ. eigenvalues --   -0.96350  -0.96273  -0.95403  -0.89779  -0.89653
  Beta  occ. eigenvalues --   -0.83213  -0.82527  -0.82135  -0.81790  -0.81615
  Beta  occ. eigenvalues --   -0.80538  -0.80334  -0.79763  -0.79607  -0.78069
  Beta  occ. eigenvalues --   -0.77501  -0.76693  -0.76087  -0.75132  -0.73296
  Beta  occ. eigenvalues --   -0.71653  -0.71039  -0.70833  -0.70653  -0.70158
  Beta  occ. eigenvalues --   -0.69015  -0.68921  -0.68419  -0.66007  -0.65486
  Beta  occ. eigenvalues --   -0.64869  -0.63836  -0.63500  -0.63401  -0.61078
  Beta  occ. eigenvalues --   -0.61055  -0.60327  -0.59611  -0.58464  -0.58003
  Beta  occ. eigenvalues --   -0.55269  -0.54998  -0.54801  -0.54017  -0.53791
  Beta  occ. eigenvalues --   -0.53189  -0.52547  -0.52464  -0.51785  -0.51241
  Beta  occ. eigenvalues --   -0.51053  -0.49896  -0.49676  -0.49315  -0.49002
  Beta  occ. eigenvalues --   -0.48701  -0.48100  -0.47379  -0.47053  -0.46722
  Beta  occ. eigenvalues --   -0.46681  -0.46458  -0.45760  -0.45478  -0.45160
  Beta  occ. eigenvalues --   -0.44712  -0.44565  -0.43831  -0.43640  -0.43586
  Beta  occ. eigenvalues --   -0.43213  -0.43115  -0.43021  -0.42610  -0.42481
  Beta  occ. eigenvalues --   -0.42348  -0.42053  -0.41901  -0.41843  -0.41614
  Beta  occ. eigenvalues --   -0.41549  -0.41395  -0.41018  -0.40717  -0.40526
  Beta  occ. eigenvalues --   -0.40241  -0.40024  -0.39864  -0.39706  -0.39616
  Beta  occ. eigenvalues --   -0.39242  -0.39121  -0.38909  -0.38551  -0.38284
  Beta  occ. eigenvalues --   -0.37885  -0.37669  -0.37346  -0.36803  -0.36569
  Beta  occ. eigenvalues --   -0.36531  -0.36366  -0.35965  -0.34959  -0.34634
  Beta  occ. eigenvalues --   -0.34347  -0.34189  -0.33869  -0.33347  -0.33062
  Beta  occ. eigenvalues --   -0.32670  -0.32510  -0.31991  -0.31382  -0.30942
  Beta  occ. eigenvalues --   -0.30349  -0.29410  -0.29006  -0.28435  -0.28249
  Beta  occ. eigenvalues --   -0.28014  -0.27747  -0.27388  -0.26974  -0.23843
  Beta  occ. eigenvalues --   -0.23338  -0.23127  -0.22818  -0.22193  -0.21922
  Beta  occ. eigenvalues --   -0.19195  -0.19090  -0.13354
  Beta virt. eigenvalues --   -0.07769  -0.06299  -0.02584  -0.01376  -0.00806
  Beta virt. eigenvalues --   -0.00218   0.00078   0.00243   0.01157   0.02256
  Beta virt. eigenvalues --    0.02873   0.03709   0.03971   0.04135   0.04907
  Beta virt. eigenvalues --    0.05228   0.05388   0.05873   0.06026   0.06205
  Beta virt. eigenvalues --    0.06461   0.06858   0.06945   0.07440   0.07581
  Beta virt. eigenvalues --    0.07801   0.08071   0.08153   0.08401   0.08616
  Beta virt. eigenvalues --    0.08755   0.09208   0.09810   0.09898   0.10218
  Beta virt. eigenvalues --    0.10488   0.10695   0.10845   0.11003   0.11163
  Beta virt. eigenvalues --    0.11374   0.12060   0.12164   0.12328   0.12438
  Beta virt. eigenvalues --    0.12525   0.12668   0.12996   0.13111   0.13372
  Beta virt. eigenvalues --    0.13588   0.13817   0.14045   0.14201   0.14678
  Beta virt. eigenvalues --    0.14713   0.14840   0.15152   0.15304   0.15382
  Beta virt. eigenvalues --    0.15582   0.15640   0.15746   0.15882   0.15969
  Beta virt. eigenvalues --    0.16147   0.16274   0.16376   0.16701   0.16979
  Beta virt. eigenvalues --    0.17490   0.17546   0.17780   0.17897   0.18032
  Beta virt. eigenvalues --    0.18216   0.18431   0.18700   0.18842   0.19224
  Beta virt. eigenvalues --    0.19397   0.19758   0.20380   0.20507   0.20734
  Beta virt. eigenvalues --    0.20777   0.21176   0.21355   0.21371   0.21490
  Beta virt. eigenvalues --    0.21731   0.21858   0.22270   0.22588   0.22772
  Beta virt. eigenvalues --    0.22841   0.23058   0.23214   0.23405   0.23455
  Beta virt. eigenvalues --    0.23852   0.24161   0.24448   0.24779   0.24832
  Beta virt. eigenvalues --    0.25086   0.25138   0.25437   0.25614   0.25883
  Beta virt. eigenvalues --    0.25943   0.26182   0.26277   0.26393   0.26584
  Beta virt. eigenvalues --    0.26762   0.26994   0.27216   0.27495   0.27703
  Beta virt. eigenvalues --    0.27984   0.28016   0.28129   0.28380   0.28618
  Beta virt. eigenvalues --    0.28783   0.29017   0.29342   0.29461   0.29656
  Beta virt. eigenvalues --    0.29721   0.29864   0.30388   0.30461   0.30796
  Beta virt. eigenvalues --    0.31094   0.31260   0.31390   0.31533   0.31828
  Beta virt. eigenvalues --    0.32084   0.32520   0.32700   0.32740   0.33066
  Beta virt. eigenvalues --    0.33221   0.33339   0.33665   0.34081   0.34356
  Beta virt. eigenvalues --    0.34440   0.34866   0.35065   0.35121   0.35315
  Beta virt. eigenvalues --    0.35416   0.35707   0.35773   0.36295   0.36551
  Beta virt. eigenvalues --    0.36649   0.37029   0.37133   0.37491   0.37607
  Beta virt. eigenvalues --    0.37707   0.37968   0.38000   0.38108   0.38478
  Beta virt. eigenvalues --    0.38531   0.38849   0.38910   0.39267   0.39414
  Beta virt. eigenvalues --    0.39467   0.39643   0.39900   0.39950   0.40119
  Beta virt. eigenvalues --    0.40395   0.40608   0.40780   0.40845   0.40972
  Beta virt. eigenvalues --    0.41107   0.41241   0.41508   0.41720   0.41832
  Beta virt. eigenvalues --    0.41956   0.42210   0.42436   0.42708   0.42840
  Beta virt. eigenvalues --    0.43117   0.43205   0.43451   0.43698   0.43806
  Beta virt. eigenvalues --    0.43911   0.44082   0.44370   0.44405   0.44647
  Beta virt. eigenvalues --    0.44916   0.45010   0.45342   0.45454   0.45565
  Beta virt. eigenvalues --    0.45692   0.45920   0.46192   0.46271   0.46471
  Beta virt. eigenvalues --    0.46728   0.46907   0.46930   0.46989   0.47148
  Beta virt. eigenvalues --    0.47214   0.47607   0.47661   0.47817   0.47911
  Beta virt. eigenvalues --    0.48211   0.48280   0.48499   0.48728   0.48964
  Beta virt. eigenvalues --    0.49020   0.49035   0.49431   0.49475   0.49587
  Beta virt. eigenvalues --    0.49732   0.49850   0.49925   0.50042   0.50412
  Beta virt. eigenvalues --    0.50608   0.50713   0.50840   0.51046   0.51101
  Beta virt. eigenvalues --    0.51456   0.51537   0.51795   0.51991   0.52217
  Beta virt. eigenvalues --    0.52487   0.52562   0.52946   0.53019   0.53163
  Beta virt. eigenvalues --    0.53309   0.53592   0.53807   0.54062   0.54203
  Beta virt. eigenvalues --    0.54458   0.54612   0.54986   0.55071   0.55154
[...]
 
              Baa    -0.0015    -0.207    -0.074    -0.069  0.3435  0.8115 -0.4727
    34 C(13)  Bbb    -0.0014    -0.187    -0.067    -0.062  0.3262  0.3689  0.8704
              Bcc     0.0029     0.394     0.140     0.131  0.8807 -0.4532 -0.1380
 
              Baa    -0.0013     0.092     0.033     0.031  0.4872  0.6171  0.6178
    35 O(17)  Bbb    -0.0009     0.065     0.023     0.022 -0.2873 -0.5549  0.7808
              Bcc     0.0022    -0.157    -0.056    -0.052  0.8247 -0.5579 -0.0931
 
              Baa    -0.0012     0.090     0.032     0.030  0.4068  0.8822  0.2372
    36 O(17)  Bbb    -0.0012     0.086     0.031     0.029  0.1424 -0.3177  0.9374
              Bcc     0.0024    -0.176    -0.063    -0.059  0.9023 -0.3476 -0.2549
 
              Baa    -0.0309    -4.144    -1.479    -1.382 -0.0319  0.1808  0.9830
    37 C(13)  Bbb    -0.0196    -2.633    -0.940    -0.878  0.9037 -0.4149  0.1057
              Bcc     0.0505     6.777     2.418     2.261  0.4269  0.8917 -0.1501
 
              Baa    -0.0624    -8.367    -2.986    -2.791 -0.0856  0.2698  0.9591
    38 C(13)  Bbb     0.0184     2.472     0.882     0.824 -0.6692  0.6976 -0.2559
              Bcc     0.0439     5.896     2.104     1.967  0.7381  0.6638 -0.1208
 
              Baa    -0.0167    -2.248    -0.802    -0.750 -0.5162  0.8298 -0.2118
    39 C(13)  Bbb     0.0049     0.660     0.236     0.220 -0.2135  0.1149  0.9702
              Bcc     0.0118     1.587     0.566     0.529  0.8294  0.5460  0.1179
 
              Baa    -0.0947   -12.713    -4.536    -4.241 -0.0945  0.2045  0.9743
    40 C(13)  Bbb     0.0121     1.623     0.579     0.541 -0.1665  0.9616 -0.2180
              Bcc     0.0826    11.091     3.957     3.699  0.9815  0.1828  0.0568
 
              Baa    -0.0043    -0.576    -0.205    -0.192 -0.3423  0.3788  0.8599
    41 C(13)  Bbb    -0.0031    -0.412    -0.147    -0.137  0.7607 -0.4255  0.4902
              Bcc     0.0074     0.988     0.352     0.329  0.5516  0.8219 -0.1425
 
              Baa    -0.0074    -0.996    -0.355    -0.332 -0.0328 -0.2795  0.9596
    42 C(13)  Bbb    -0.0017    -0.223    -0.080    -0.075 -0.3040  0.9174  0.2568
              Bcc     0.0091     1.220     0.435     0.407  0.9521  0.2832  0.1150
 
              Baa    -0.0049    -0.655    -0.234    -0.219 -0.4022  0.6813  0.6116
    43 C(13)  Bbb     0.0006     0.084     0.030     0.028  0.8566  0.0442  0.5141
              Bcc     0.0043     0.571     0.204     0.191  0.3232  0.7307 -0.6013
 
              Baa    -0.0835   -11.203    -3.997    -3.737 -0.1641  0.1748  0.9708
    44 C(13)  Bbb     0.0069     0.928     0.331     0.310  0.4240  0.9011 -0.0905
              Bcc     0.0766    10.274     3.666     3.427  0.8907 -0.3968  0.2220
 
              Baa    -0.0252    -3.379    -1.206    -1.127  0.6950  0.7133  0.0907
    45 C(13)  Bbb     0.0022     0.300     0.107     0.100 -0.6022  0.6463 -0.4687
              Bcc     0.0229     3.078     1.098     1.027 -0.3930  0.2711  0.8787
 
              Baa    -0.0548    -7.357    -2.625    -2.454 -0.1958  0.1713  0.9656
    46 C(13)  Bbb     0.0144     1.938     0.691     0.646  0.8412  0.5354  0.0756
              Bcc     0.0404     5.419     1.934     1.808 -0.5040  0.8271 -0.2490
 
              Baa    -0.0265    -3.561    -1.271    -1.188  0.9719  0.1400 -0.1893
    47 C(13)  Bbb    -0.0197    -2.638    -0.941    -0.880  0.1555  0.2219  0.9626
              Bcc     0.0462     6.199     2.212     2.068 -0.1768  0.9650 -0.1939
 
              Baa    -0.0044    -0.594    -0.212    -0.198  0.5470  0.8345 -0.0664
    48 C(13)  Bbb    -0.0032    -0.429    -0.153    -0.143 -0.1825  0.1964  0.9634
              Bcc     0.0076     1.023     0.365     0.341  0.8170 -0.5149  0.2597
 
              Baa    -0.0075    -1.006    -0.359    -0.335  0.8920  0.1348 -0.4316
    49 C(13)  Bbb     0.0030     0.409     0.146     0.136  0.1049  0.8668  0.4875
              Bcc     0.0044     0.597     0.213     0.199  0.4398 -0.4801  0.7590
 
              Baa    -0.0182    -2.447    -0.873    -0.816  0.5296  0.0902  0.8434
    50 C(13)  Bbb     0.0064     0.859     0.307     0.287  0.7571  0.3982 -0.5179
              Bcc     0.0118     1.588     0.567     0.530 -0.3826  0.9128  0.1426
 
              Baa    -0.0409    -5.489    -1.959    -1.831 -0.0544  0.1657  0.9847
    51 C(13)  Bbb    -0.0149    -1.998    -0.713    -0.666  0.8996 -0.4197  0.1203
              Bcc     0.0558     7.487     2.672     2.498  0.4332  0.8924 -0.1263
 
              Baa    -0.0596    -7.992    -2.852    -2.666 -0.0495  0.1953  0.9795
    52 C(13)  Bbb     0.0170     2.279     0.813     0.760 -0.6657  0.7247 -0.1781
              Bcc     0.0426     5.713     2.039     1.906  0.7446  0.6609 -0.0941
 
              Baa    -0.0135    -1.815    -0.648    -0.605 -0.5302  0.8425 -0.0948
    53 C(13)  Bbb     0.0003     0.039     0.014     0.013 -0.0318  0.0919  0.9953
              Bcc     0.0132     1.776     0.634     0.593  0.8473  0.5307 -0.0220
 
              Baa    -0.0979   -13.139    -4.688    -4.383 -0.0628  0.1375  0.9885
    54 C(13)  Bbb     0.0144     1.930     0.689     0.644 -0.1595  0.9764 -0.1459
              Bcc     0.0835    11.209     4.000     3.739  0.9852  0.1668  0.0394
 
              Baa    -0.0042    -0.568    -0.203    -0.189 -0.1877  0.2642  0.9460
    55 C(13)  Bbb    -0.0032    -0.423    -0.151    -0.141  0.8113 -0.5013  0.3009
              Bcc     0.0074     0.991     0.354     0.330  0.5537  0.8240 -0.1202
 
              Baa    -0.0037    -0.490    -0.175    -0.164  0.2177 -0.6534  0.7250
    56 C(13)  Bbb    -0.0034    -0.456    -0.163    -0.152 -0.1839  0.7021  0.6879
              Bcc     0.0071     0.946     0.338     0.316  0.9585  0.2831 -0.0327
 
              Baa    -0.0021    -0.278    -0.099    -0.093 -0.4079  0.8211 -0.3993
    57 C(13)  Bbb    -0.0018    -0.245    -0.087    -0.082 -0.2993  0.2929  0.9081
              Bcc     0.0039     0.523     0.187     0.174  0.8626  0.4899  0.1262
 
              Baa    -0.0012    -0.159    -0.057    -0.053  0.1517 -0.5355  0.8308
    58 C(13)  Bbb    -0.0009    -0.124    -0.044    -0.041 -0.2734  0.7850  0.5559
              Bcc     0.0021     0.283     0.101     0.094  0.9499  0.3114  0.0273
 
              Baa    -0.0010     0.069     0.025     0.023 -0.1861  0.0942  0.9780
    59 O(17)  Bbb    -0.0008     0.058     0.021     0.019 -0.2095  0.9687 -0.1331
              Bcc     0.0018    -0.127    -0.045    -0.042  0.9599  0.2297  0.1606
 
              Baa    -0.0011     0.082     0.029     0.027  0.2636 -0.5195  0.8128
    60 O(17)  Bbb    -0.0004     0.028     0.010     0.009 -0.3469  0.7352  0.5823
              Bcc     0.0015    -0.110    -0.039    -0.037  0.9001  0.4355 -0.0136
 
              Baa    -0.1460    -5.630    -2.009    -1.878  0.7974  0.6005 -0.0595
    61 N(14)  Bbb    -0.0690    -2.660    -0.949    -0.887 -0.0190  0.1234  0.9922
              Bcc     0.2149     8.290     2.958     2.765 -0.6031  0.7901 -0.1098
 
              Baa    -0.1398    -5.392    -1.924    -1.799 -0.5957  0.7728 -0.2187
    62 N(14)  Bbb    -0.0940    -3.627    -1.294    -1.210 -0.0796  0.2142  0.9735
              Bcc     0.2338     9.019     3.218     3.008  0.7992  0.5974 -0.0661
 
              Baa    -0.1392    -5.370    -1.916    -1.791  0.7945  0.6070 -0.0167
    63 N(14)  Bbb    -0.1017    -3.921    -1.399    -1.308 -0.1173  0.1803  0.9766
              Bcc     0.2409     9.291     3.315     3.099 -0.5958  0.7739 -0.2145
 
              Baa    -0.1420    -5.479    -1.955    -1.827 -0.6018  0.7861 -0.1409
    64 N(14)  Bbb    -0.1006    -3.879    -1.384    -1.294 -0.0371  0.1486  0.9882
              Bcc     0.2426     9.358     3.339     3.121  0.7978  0.6000 -0.0603
 
              Baa    -0.8001   -13.851    -4.943    -4.620 -0.3065  0.8024  0.5121
    65 Fe(57) Bbb    -0.6891   -11.931    -4.257    -3.980  0.2074 -0.4688  0.8586
              Bcc     1.4892    25.782     9.200     8.600  0.9290  0.3694 -0.0227
 
              Baa    -0.0065    -3.460    -1.234    -1.154 -0.0262  0.1589  0.9869
    66 H(1)   Bbb    -0.0032    -1.719    -0.613    -0.573  0.9937 -0.1038  0.0431
              Bcc     0.0097     5.179     1.848     1.727  0.1093  0.9818 -0.1552
 
              Baa    -0.0072    -3.824    -1.365    -1.276  0.1440  0.9719 -0.1861
    67 H(1)   Bbb    -0.0062    -3.295    -1.176    -1.099 -0.1140  0.2031  0.9725
              Bcc     0.0133     7.119     2.540     2.375  0.9830 -0.1189  0.1400
 
              Baa    -0.0067    -3.553    -1.268    -1.185 -0.0513  0.1232  0.9911
    68 H(1)   Bbb    -0.0026    -1.413    -0.504    -0.471  0.9928 -0.1016  0.0640
              Bcc     0.0093     4.966     1.772     1.656  0.1086  0.9872 -0.1171
 
              Baa    -0.0030    -1.621    -0.578    -0.541 -0.1912  0.8632 -0.4672
    69 H(1)   Bbb    -0.0028    -1.508    -0.538    -0.503 -0.0664  0.4635  0.8836
              Bcc     0.0059     3.129     1.116     1.044  0.9793  0.2000 -0.0313
 
              Baa    -0.0026    -1.367    -0.488    -0.456 -0.3106  0.2252  0.9235
    70 H(1)   Bbb    -0.0025    -1.349    -0.481    -0.450  0.9409  0.2107  0.2651
              Bcc     0.0051     2.716     0.969     0.906 -0.1349  0.9512 -0.2774
 
              Baa    -0.0072    -3.867    -1.380    -1.290  0.1740  0.9714 -0.1616
    71 H(1)   Bbb    -0.0062    -3.317    -1.184    -1.107 -0.0435  0.1715  0.9842
              Bcc     0.0135     7.184     2.564     2.396  0.9838 -0.1642  0.0721
 
              Baa    -0.0022    -1.194    -0.426    -0.398  0.9062  0.4118 -0.0966
    72 H(1)   Bbb    -0.0021    -1.113    -0.397    -0.371 -0.0200  0.2697  0.9627
              Bcc     0.0043     2.307     0.823     0.769 -0.4225  0.8704 -0.2526
 
              Baa    -0.0028    -1.517    -0.541    -0.506  0.9368  0.2188  0.2732
    73 H(1)   Bbb    -0.0027    -1.467    -0.523    -0.489 -0.3034  0.1184  0.9455
              Bcc     0.0056     2.984     1.065     0.995 -0.1745  0.9686 -0.1773
 
              Baa    -0.0024    -1.275    -0.455    -0.425  0.8893  0.3795 -0.2553
    74 H(1)   Bbb    -0.0022    -1.158    -0.413    -0.386  0.2307  0.1097  0.9668
              Bcc     0.0046     2.433     0.868     0.812 -0.3949  0.9187 -0.0100
 
              Baa    -0.0030    -1.578    -0.563    -0.526  0.4752  0.6584 -0.5837
    75 H(1)   Bbb    -0.0027    -1.444    -0.515    -0.482  0.1437  0.5964  0.7897
              Bcc     0.0057     3.022     1.078     1.008  0.8681 -0.4591  0.1887
 
              Baa    -0.0024    -1.274    -0.455    -0.425  0.7147  0.6742 -0.1859
    76 H(1)   Bbb    -0.0023    -1.216    -0.434    -0.406  0.0851  0.1799  0.9800
              Bcc     0.0047     2.490     0.888     0.830 -0.6942  0.7163 -0.0712
 
              Baa    -0.0031    -1.675    -0.598    -0.559  0.5453  0.8211 -0.1688
    77 H(1)   Bbb    -0.0027    -1.435    -0.512    -0.479  0.3496 -0.0397  0.9361
              Bcc     0.0058     3.110     1.110     1.037  0.7619 -0.5694 -0.3087
 
              Baa    -0.0033    -1.750    -0.625    -0.584  0.3711  0.6091  0.7010
    78 H(1)   Bbb    -0.0031    -1.640    -0.585    -0.547  0.1057  0.7223 -0.6835
              Bcc     0.0064     3.390     1.210     1.131  0.9226 -0.3277 -0.2037
 
              Baa    -0.0029    -1.525    -0.544    -0.509  0.8606 -0.5031  0.0790
    79 H(1)   Bbb    -0.0025    -1.341    -0.478    -0.447  0.0664  0.2647  0.9620
              Bcc     0.0054     2.865     1.022     0.956  0.5050  0.8227 -0.2612
 
              Baa    -0.0021    -1.106    -0.394    -0.369 -0.0192  0.2323  0.9724
    80 H(1)   Bbb    -0.0019    -1.017    -0.363    -0.339  0.7370 -0.6540  0.1708
              Bcc     0.0040     2.123     0.757     0.708  0.6756  0.7200 -0.1587
 
              Baa    -0.0024    -1.285    -0.459    -0.429  0.8015 -0.5197  0.2959
    81 H(1)   Bbb    -0.0023    -1.224    -0.437    -0.408 -0.2442  0.1673  0.9552
              Bcc     0.0047     2.509     0.895     0.837  0.5459  0.8378 -0.0072
 
              Baa    -0.0022    -1.174    -0.419    -0.392  0.2180 -0.6162  0.7568
    82 H(1)   Bbb    -0.0016    -0.880    -0.314    -0.294 -0.5327  0.5746  0.6214
              Bcc     0.0039     2.054     0.733     0.685  0.8177  0.5386  0.2030
 
              Baa    -0.0016    -0.840    -0.300    -0.280 -0.2830  0.6638  0.6923
    83 H(1)   Bbb    -0.0013    -0.679    -0.242    -0.226  0.2012 -0.6647  0.7195
              Bcc     0.0028     1.519     0.542     0.507  0.9378  0.3430  0.0545
 
              Baa    -0.0029    -1.570    -0.560    -0.524  0.5530  0.8325  0.0347
    84 H(1)   Bbb    -0.0024    -1.299    -0.464    -0.433 -0.0760  0.0089  0.9971
              Bcc     0.0054     2.869     1.024     0.957  0.8297 -0.5540  0.0682
 
              Baa    -0.0028    -1.495    -0.533    -0.499  0.4570  0.7428  0.4893
    85 H(1)   Bbb    -0.0024    -1.278    -0.456    -0.426 -0.5752 -0.1728  0.7996
              Bcc     0.0052     2.773     0.989     0.925  0.6785 -0.6468  0.3483
 
              Baa    -0.0032    -1.713    -0.611    -0.571 -0.4069 -0.1508  0.9009
    86 H(1)   Bbb    -0.0031    -1.642    -0.586    -0.548  0.2837  0.9166  0.2816
              Bcc     0.0063     3.355     1.197     1.119  0.8683 -0.3702  0.3302
 
              Baa    -0.0030    -1.576    -0.562    -0.526  0.8049  0.4826 -0.3452
    87 H(1)   Bbb    -0.0017    -0.921    -0.329    -0.307  0.2956  0.1784  0.9385
              Bcc     0.0047     2.497     0.891     0.833 -0.5145  0.8575 -0.0009
 
              Baa    -0.0015    -0.819    -0.292    -0.273  0.6240  0.4327  0.6507
    88 H(1)   Bbb    -0.0007    -0.391    -0.140    -0.131 -0.5201 -0.3916  0.7591
              Bcc     0.0023     1.210     0.432     0.404 -0.5832  0.8121  0.0193
 
              Baa    -0.0023    -1.208    -0.431    -0.403  0.7443 -0.5621  0.3607
    89 H(1)   Bbb    -0.0021    -1.132    -0.404    -0.378 -0.3096  0.1883  0.9321
              Bcc     0.0044     2.340     0.835     0.781  0.5918  0.8054  0.0338
 
              Baa    -0.0021    -1.140    -0.407    -0.380  0.6458 -0.4313  0.6300
    90 H(1)   Bbb    -0.0020    -1.069    -0.381    -0.357 -0.3804  0.5337  0.7553
              Bcc     0.0041     2.209     0.788     0.737  0.6620  0.7274 -0.1806
 
              Baa    -0.0029    -1.522    -0.543    -0.508  0.8611 -0.4893 -0.1380
    91 H(1)   Bbb    -0.0026    -1.400    -0.500    -0.467  0.2069  0.0893  0.9743
              Bcc     0.0055     2.922     1.043     0.975  0.4644  0.8675 -0.1782
 
              Baa    -0.0029    -1.572    -0.561    -0.524 -0.0797  0.1198  0.9896
    92 H(1)   Bbb    -0.0029    -1.535    -0.548    -0.512 -0.1782  0.9750 -0.1324
              Bcc     0.0058     3.107     1.109     1.036  0.9808  0.1869  0.0564
 
              Baa    -0.0027    -1.437    -0.513    -0.479 -0.3447  0.9374 -0.0497
    93 H(1)   Bbb    -0.0024    -1.293    -0.461    -0.431  0.1598  0.1107  0.9809
              Bcc     0.0051     2.731     0.974     0.911  0.9250  0.3301 -0.1879
 
              Baa    -0.0017    -0.885    -0.316    -0.295 -0.5657  0.7629 -0.3131
    94 H(1)   Bbb    -0.0016    -0.846    -0.302    -0.282 -0.2200  0.2263  0.9489
              Bcc     0.0032     1.730     0.617     0.577  0.7948  0.6056  0.0399
 
              Baa    -0.0020    -1.074    -0.383    -0.358 -0.3625  0.8670 -0.3419
    95 H(1)   Bbb    -0.0018    -0.967    -0.345    -0.323 -0.3755  0.1998  0.9050
              Bcc     0.0038     2.042     0.728     0.681  0.8530  0.4565  0.2531
 
              Baa    -0.0031    -1.640    -0.585    -0.547  0.8316  0.5452  0.1058
    96 H(1)   Bbb    -0.0029    -1.554    -0.554    -0.518 -0.5549  0.8089  0.1944
              Bcc     0.0060     3.194     1.140     1.065  0.0204 -0.2204  0.9752
 
              Baa    -0.0028    -1.469    -0.524    -0.490  0.0494  0.9373 -0.3450
    97 H(1)   Bbb    -0.0027    -1.442    -0.515    -0.481  0.9699  0.0375  0.2407
              Bcc     0.0055     2.912     1.039     0.971 -0.2385  0.3465  0.9072
 
              Baa    -0.0010    -0.529    -0.189    -0.176  0.1668  0.8991 -0.4047
    98 H(1)   Bbb    -0.0010    -0.523    -0.187    -0.174  0.3025  0.3440  0.8889
              Bcc     0.0020     1.052     0.375     0.351  0.9385 -0.2707 -0.2146
 
              Baa    -0.0009    -0.503    -0.179    -0.168 -0.2912  0.9564 -0.0225
    99 H(1)   Bbb    -0.0009    -0.488    -0.174    -0.163 -0.2676 -0.0588  0.9617
              Bcc     0.0019     0.990     0.353     0.330  0.9185  0.2861  0.2731
 

 ---------------------------------------------------------------------------------

 1\1\GINC-NODE593\SP\UPBE1PBE\def2TZVP\C42H44Fe1N8O4(5)\KLEICH\16-Oct-2
 022\0\\# PBE1PBE/def2TZVP empiricaldispersion=GD3BJ int=(grid=ultrafin
 e) geom=check guess=read scrf=(smd,solvent=Chloroform)\\1aw3_II_Q_solv
 \\0,5\C,0,4.428,9.754,1.996\C,0,3.012,9.72,2.522\N,0,2.674,9.452,3.824
 \C,0,1.843,9.805,1.81\C,0,1.338,9.387,3.894\N,0,0.779,9.575,2.689\H,0,
 4.583,8.873,1.373\H,0,5.099,9.671,2.852\H,0,3.321,9.286,4.585\H,0,1.75
 1,9.989,0.755\H,0,0.806,9.184,4.805\C,0,-6.248,10.013,0.126\C,0,-5.16,
 9.694,1.112\N,0,-5.297,8.979,2.278\C,0,-3.834,9.989,0.948\C,0,-4.062,8
 .858,2.802\N,0,-3.129,9.446,2.021\H,0,-6.869,9.133,-0.016\H,0,-5.763,1
 0.207,-0.826\H,0,-6.156,8.576,2.649\H,0,-3.408,10.531,0.12\H,0,-3.877,
 8.333,3.724\C,0,-1.333,12.913,2.873\C,0,-0.466,10.195,-1.128\C,0,-1.14
 3,6.149,1.56\C,0,-1.72,8.874,5.632\C,0,-1.123,12.495,1.558\C,0,-1.063,
 13.397,0.434\C,0,-0.748,12.656,-0.682\C,0,-0.715,11.269,-0.274\C,0,-0.
 515,13.218,-2.067\C,0,-1.36,14.878,0.473\C,0,-2.786,15.185,0.941\C,0,-
 3.153,16.658,0.83\O,0,-2.5,17.359,0.027\O,0,-4.098,17.055,1.544\C,0,-0
 .534,8.873,-0.708\C,0,-0.314,7.74,-1.577\C,0,-0.563,6.629,-0.812\C,0,-
 0.863,7.033,0.532\C,0,0.108,7.775,-3.026\C,0,-0.44,5.191,-1.257\C,0,-0
 .981,4.782,-2.415\C,0,-1.347,6.551,2.877\C,0,-1.673,5.652,3.954\C,0,-1
 .699,6.409,5.097\C,0,-1.571,7.799,4.746\C,0,-1.997,4.189,3.838\C,0,-2.
 042,5.893,6.476\C,0,-1.558,4.719,6.939\C,0,-1.672,10.215,5.225\C,0,-1.
 869,11.355,6.093\C,0,-1.72,12.494,5.327\C,0,-1.482,12.058,3.967\C,0,-2
 .221,11.305,7.561\C,0,-1.929,13.933,5.773\C,0,-1.24,14.359,7.076\C,0,-
 1.561,15.812,7.393\O,0,-0.742,16.674,7.011\O,0,-2.63,16.031,8.002\N,0,
 -0.975,11.234,1.077\N,0,-0.821,8.393,0.554\N,0,-1.332,7.823,3.394\N,0,
 -1.461,10.7,3.968\Fe,0,-1.148,9.534,2.257\H,0,-0.257,10.379,-2.168\H,0
 ,-1.196,5.104,1.306\H,0,-1.899,8.65,6.671\H,0,-0.18,4.44,-0.536\H,0,-2
 .635,6.508,7.131\H,0,-1.347,13.973,3.044\H,0,0.244,13.998,-2.019\H,0,-
 0.176,12.464,-2.774\H,0,-1.442,13.654,-2.439\H,0,-0.665,15.381,1.137\H
 ,0,-1.23,15.299,-0.524\H,0,-3.456,14.608,0.324\H,0,-2.954,14.883,1.971
 \H,0,0.921,8.486,-3.162\H,0,0.467,6.797,-3.34\H,0,-0.741,8.059,-3.645\
 H,0,-1.84,5.341,-2.723\H,0,-0.882,3.752,-2.724\H,0,-1.096,3.595,3.995\
 H,0,-2.746,3.95,4.592\H,0,-2.42,3.965,2.862\H,0,-0.823,4.169,6.371\H,0
 ,-1.719,4.449,7.972\H,0,-1.321,11.466,8.155\H,0,-2.959,12.076,7.784\H,
 0,-2.658,10.349,7.838\H,0,-1.535,14.623,5.031\H,0,-3.002,14.12,5.836\H
 ,0,-1.564,13.767,7.925\H,0,-0.163,14.253,6.971\H,0,4.60592924,10.65110
 633,1.44062498\H,0,-6.83464038,10.83913137,0.46988957\H,0,-3.91740169,
 17.51318705,2.36804422\H,0,0.20042932,16.50684755,7.08507452\\Version=
 ES64L-G16RevA.03\State=5-A\HF=-3627.7388409\S2=6.318354\S2-1=0.\S2A=6.
 002409\RMSD=1.835e-09\Dipole=1.0160939,-1.5919601,1.4191641\Quadrupole
 =43.2063012,-30.7669406,-12.4393606,20.9780648,23.3786471,1.6333414\PG
 =C01 [X(C42H44Fe1N8O4)]\\@


 YOU CANNOT THROW TO THE GROUND THE LETTERS OF
 THE GREEK ALPHABET AND PICK UP THE ILIAD.
        - RUFUS CHOATE, 1799-1859
 Job cpu time:       8 days  4 hours 28 minutes  4.9 seconds.
 Elapsed time:       2 days  1 hours 14 minutes 15.5 seconds.
 File lengths (MBytes):  RWF=   4484 Int=      0 D2E=      0 Chk=    317 Scr=      1
 Normal termination of Gaussian 16 at Sun Oct 16 00:36:43 2022.
