 Entering Gaussian System, Link 0=g16
 Input=/net/homes/chemie/zhartovska/work/BioModel/Konrad/1aw3/1aw312/1aw16/1aw316.com
 Output=/net/homes/chemie/zhartovska/work/BioModel/Konrad/1aw3/1aw312/1aw16/1aw316.log
 Initial command:
 /afs/math/software/gaussian/g16.A03/g16/l1.exe "/scratch/zhartovska_gaussian.ACgg9wi/Gau-3177.inp" -scrdir="/scratch/zhartovska_gaussian.ACgg9wi/"
 Entering Link 1 = /afs/math/software/gaussian/g16.A03/g16/l1.exe PID=      3178.
  
 Copyright (c) 1988,1990,1992,1993,1995,1998,2003,2009,2016,
            Gaussian, Inc.  All Rights Reserved.
  
 This is part of the Gaussian(R) 16 program.  It is based on
 the Gaussian(R) 09 system (copyright 2009, Gaussian, Inc.),
 the Gaussian(R) 03 system (copyright 2003, Gaussian, Inc.),
 the Gaussian(R) 98 system (copyright 1998, Gaussian, Inc.),
 the Gaussian(R) 94 system (copyright 1995, Gaussian, Inc.),
 the Gaussian 92(TM) system (copyright 1992, Gaussian, Inc.),
 the Gaussian 90(TM) system (copyright 1990, Gaussian, Inc.),
 the Gaussian 88(TM) system (copyright 1988, Gaussian, Inc.),
 the Gaussian 86(TM) system (copyright 1986, Carnegie Mellon
 University), and the Gaussian 82(TM) system (copyright 1983,
 Carnegie Mellon University). Gaussian is a federally registered
 trademark of Gaussian, Inc.
  
 This software contains proprietary and confidential information,
 including trade secrets, belonging to Gaussian, Inc.
  
 This software is provided under written license and may be
 used, copied, transmitted, or stored only in accord with that
 written license.
  
 The following legend is applicable only to US Government
 contracts under FAR:
  
                    RESTRICTED RIGHTS LEGEND
  
 Use, reproduction and disclosure by the US Government is
 subject to restrictions as set forth in subparagraphs (a)
 and (c) of the Commercial Computer Software - Restricted
 Rights clause in FAR 52.227-19.
  
 Gaussian, Inc.
 340 Quinnipiac St., Bldg. 40, Wallingford CT 06492
  
  
 ---------------------------------------------------------------
 Warning -- This program may not be used in any manner that
 competes with the business of Gaussian, Inc. or will provide
 assistance to any competitor of Gaussian, Inc.  The licensee
 of this program is prohibited from giving any competitor of
 Gaussian, Inc. access to this program.  By using this program,
 the user acknowledges that Gaussian, Inc. is engaged in the
 business of creating and licensing software in the field of
 computational chemistry and represents and warrants to the
 licensee that it is not a competitor of Gaussian, Inc. and that
 it will not use this program in any manner prohibited above.
 ---------------------------------------------------------------
  

 Cite this work as:
 Gaussian 16, Revision A.03,
 M. J. Frisch, G. W. Trucks, H. B. Schlegel, G. E. Scuseria, 
 M. A. Robb, J. R. Cheeseman, G. Scalmani, V. Barone, 
 G. A. Petersson, H. Nakatsuji, X. Li, M. Caricato, A. V. Marenich, 
 J. Bloino, B. G. Janesko, R. Gomperts, B. Mennucci, H. P. Hratchian, 
 J. V. Ortiz, A. F. Izmaylov, J. L. Sonnenberg, D. Williams-Young, 
 F. Ding, F. Lipparini, F. Egidi, J. Goings, B. Peng, A. Petrone, 
 T. Henderson, D. Ranasinghe, V. G. Zakrzewski, J. Gao, N. Rega, 
 G. Zheng, W. Liang, M. Hada, M. Ehara, K. Toyota, R. Fukuda, 
 J. Hasegawa, M. Ishida, T. Nakajima, Y. Honda, O. Kitao, H. Nakai, 
 T. Vreven, K. Throssell, J. A. Montgomery, Jr., J. E. Peralta, 
 F. Ogliaro, M. J. Bearpark, J. J. Heyd, E. N. Brothers, K. N. Kudin, 
 V. N. Staroverov, T. A. Keith, R. Kobayashi, J. Normand, 
 K. Raghavachari, A. P. Rendell, J. C. Burant, S. S. Iyengar, 
 J. Tomasi, M. Cossi, J. M. Millam, M. Klene, C. Adamo, R. Cammi, 
 J. W. Ochterski, R. L. Martin, K. Morokuma, O. Farkas, 
 J. B. Foresman, and D. J. Fox, Gaussian, Inc., Wallingford CT, 2016.
 
 ******************************************
 Gaussian 16:  ES64L-G16RevA.03 25-Dec-2016
                 7-Feb-2023 
 ******************************************
 %nprocs=12
 Will use up to   12 processors via shared memory.
 %mem=16GB
 %oldchk=1aw3_III_D.chk
 %chk=1aw3_III_H.chk
 Copying data from "1aw3_III_D.chk" to current chk file "1aw3_III_H.chk"
 IOpt=  2 FromEx=T IUOpen= 4 IOptOp= 5 NList=   0 IFRang= 0 IUIn= 4 IUOut= 2.
 ----------------------------------------------------------------------
 # PBE1PBE/def2TZVP scf=maxcycle=999 empiricaldispersion=GD3BJ int=(gri
 d=ultrafine) geom=check pop=nbo
 ----------------------------------------------------------------------
 1/29=2,38=1,172=1/1;
 2/12=2,40=1/2;
 3/5=44,7=101,11=2,14=-4,25=1,30=1,74=-13,75=-5,124=41/1,2,3;
 4//1;
 5/5=2,7=999,38=5/2;
 6/7=2,8=2,9=2,10=2,28=1,40=1/1,7;
 99/5=1,9=1/99;
 ----------
 1aw3_III_H
 ----------
 Structure from the checkpoint file:  "1aw3_III_H.chk"
 Charge =  1 Multiplicity = 6
 Z-Matrix found in chk file.
 C,0,4.428,9.754,1.996
 C,0,3.012,9.72,2.522
 N,0,2.674,9.452,3.824
 C,0,1.843,9.805,1.81
 C,0,1.338,9.387,3.894
 N,0,0.779,9.575,2.689
 H,0,4.58961716,8.91469111,1.35230716
 H,0,5.11416854,9.71198695,2.81594368
 H,0,3.321,9.286,4.585
 H,0,1.751,9.989,0.755
 H,0,0.806,9.184,4.805
 C,0,-6.248,10.013,0.126
 C,0,-5.16,9.694,1.112
 N,0,-5.297,8.979,2.278
 C,0,-3.834,9.989,0.948
 C,0,-4.062,8.858,2.802
 N,0,-3.129,9.446,2.021
 H,0,-6.88794025,9.16286096,0.01357186
 H,0,-5.81161942,10.25847869,-0.81962794
 H,0,-6.156,8.576,2.649
 H,0,-3.408,10.531,0.12
 H,0,-3.877,8.333,3.724
 C,0,-1.333,12.913,2.873
 C,0,-0.466,10.195,-1.128
 C,0,-1.143,6.149,1.56
 C,0,-1.72,8.874,5.632
 C,0,-1.123,12.495,1.558
 C,0,-1.063,13.397,0.434
 C,0,-0.748,12.656,-0.682
 C,0,-0.715,11.269,-0.274
 C,0,-0.515,13.218,-2.067
 C,0,-1.36,14.878,0.473
 C,0,-2.786,15.185,0.941
 C,0,-3.153,16.658001,0.83
 O,0,-2.5,17.358999,0.027
 O,0,-4.098,17.055,1.544
 C,0,-0.534,8.873,-0.708
 C,0,-0.314,7.74,-1.577
 C,0,-0.563,6.629,-0.812
 C,0,-0.863,7.033,0.532
 C,0,0.108,7.775,-3.026
 C,0,-0.44,5.191,-1.257
 C,0,-0.981,4.782,-2.415
 C,0,-1.347,6.551,2.877
 C,0,-1.673,5.652,3.954
 C,0,-1.699,6.409,5.097
 C,0,-1.571,7.799,4.746
 C,0,-1.997,4.189,3.838
 C,0,-2.042,5.893,6.476
 C,0,-1.558,4.719,6.939
 C,0,-1.672,10.215,5.225
 C,0,-1.869,11.355,6.093
 C,0,-1.72,12.494,5.327
 C,0,-1.482,12.058,3.967
 C,0,-2.221,11.305,7.561
 C,0,-1.929,13.933,5.773
 C,0,-1.24,14.359,7.076
 C,0,-1.561,15.812,7.393
 O,0,-0.742,16.674,7.011
 O,0,-2.63,16.031,8.002
 N,0,-0.975,11.234,1.077
 N,0,-0.821,8.393,0.554
 N,0,-1.332,7.823,3.394
 N,0,-1.461,10.7,3.968
 Fe,0,-1.148,9.534,2.257
 H,0,-0.257,10.379,-2.168
 H,0,-1.196,5.104,1.306
 H,0,-1.899,8.65,6.671
 H,0,-0.18,4.44,-0.536
 H,0,-2.635,6.508,7.131
 H,0,-1.347,13.973,3.044
 H,0,0.244,13.998,-2.019
 H,0,-0.176,12.464,-2.774
 H,0,-1.442,13.654,-2.439
 H,0,-0.665,15.381,1.137
 H,0,-1.23,15.299,-0.524
 H,0,-3.456,14.608,0.324
 H,0,-2.954,14.883,1.971
 H,0,0.921,8.486,-3.162
 H,0,0.467,6.797,-3.34
 H,0,-0.741,8.059,-3.645
 H,0,-1.84,5.341,-2.723
 H,0,-0.882,3.752,-2.724
 H,0,-1.096,3.595,3.995
 H,0,-2.746,3.95,4.592
 H,0,-2.42,3.965,2.862
 H,0,-0.823,4.169,6.371
 H,0,-1.719,4.449,7.972
 H,0,-1.321,11.466,8.155
 H,0,-2.959,12.076,7.784
 H,0,-2.658,10.349,7.838
 H,0,-1.535,14.623,5.031
 H,0,-3.002,14.12,5.836
 H,0,-1.564,13.767,7.925
 H,0,-0.163,14.253,6.971
 H,0,-6.81922222,10.84482526,0.48190999
 H,0,4.58299214,10.65939995,1.44724835
 H,0,0.20042932,16.50684755,7.08507452
 H,0,-3.91740197,17.5131862,2.36804476
 Recover connectivity data from disk.
 Stoichiometry    C42H44FeN8O4(1+,6)
 Framework group  C1[X(C42H44FeN8O4)]
 Deg. of freedom   291
 Full point group                 C1      NOp   1
 Largest Abelian subgroup         C1      NOp   1
 Largest concise Abelian subgroup C1      NOp   1
                         Standard orientation:                         
 ---------------------------------------------------------------------
 Center     Atomic      Atomic             Coordinates (Angstroms)
 Number     Number       Type             X           Y           Z
 ---------------------------------------------------------------------
      1          6           0       -1.448881   -0.351831    5.649911
      2          6           0       -1.144827    0.175470    4.267019
      3          7           0       -0.957151    1.500292    3.965529
      4          6           0       -1.138233   -0.513932    3.081518
      5          6           0       -0.831937    1.602772    2.635928
      6          7           0       -0.954543    0.405563    2.043046
      7          1           0       -2.458239   -0.705400    5.682857
      8          1           0       -1.322159    0.432559    6.366552
      9          1           0       -0.960672    2.267558    4.626269
     10          1           0       -1.276381   -1.572822    2.958989
     11          1           0       -0.678712    2.538031    2.129997
     12          6           0       -0.457788   -2.083737   -5.006504
     13          6           0       -0.591298   -1.060343   -3.914468
     14          7           0       -0.892034    0.271427   -4.074143
     15          6           0       -0.526984   -1.323384   -2.573249
     16          6           0       -0.998357    0.792493   -2.836554
     17          7           0       -0.797932   -0.143303   -1.882453
     18          1           0       -1.215552   -1.919440   -5.743864
     19          1           0       -0.569708   -3.063957   -4.592329
     20          1           0       -1.052591    0.759223   -4.954034
     21          1           0       -0.321712   -2.283608   -2.129788
     22          1           0       -1.234304    1.829589   -2.667156
     23          6           0        2.513473   -0.429642    0.336605
     24          6           0       -1.384778   -3.400560    0.689444
     25          6           0       -4.296533    0.417350   -0.310072
     26          6           0       -0.405767    3.450168   -0.370845
     27          6           0        1.690144   -1.552592    0.432324
     28          6           0        2.189766   -2.901512    0.538967
     29          6           0        1.109553   -3.736367    0.711937
     30          6           0       -0.078678   -2.918809    0.606922
     31          6           0        1.186924   -5.230017    0.938612
     32          6           0        3.636283   -3.320166    0.414843
     33          6           0        4.245663   -2.953623   -0.942011
     34          6           0        5.647330   -3.511565   -1.143925
     35          8           0        5.982278   -4.500007   -0.455878
     36          8           0        6.357568   -2.944754   -2.001081
     37          6           0       -2.495499   -2.590557    0.492207
     38          6           0       -3.858298   -3.067930    0.538492
     39          6           0       -4.641805   -1.993248    0.202751
     40          6           0       -3.811682   -0.837326    0.017569
     41          6           0       -4.321308   -4.461238    0.889527
     42          6           0       -6.150605   -1.971830    0.139032
     43          6           0       -6.824525   -2.939451   -0.501647
     44          6           0       -3.488434    1.547092   -0.401560
     45          6           0       -3.966747    2.853544   -0.774129
     46          6           0       -2.898880    3.705692   -0.657177
     47          6           0       -1.710255    2.939488   -0.389247
     48          6           0       -5.343111    3.200752   -1.267960
     49          6           0       -2.921076    5.180673   -0.988059
     50          6           0       -3.947155    5.979141   -0.618587
     51          6           0        0.729342    2.646868   -0.190646
     52          6           0        2.095599    3.120848   -0.213362
     53          6           0        2.917587    2.037714    0.026292
     54          6           0        2.060022    0.877236    0.145518
     55          6           0        2.541620    4.536042   -0.495706
     56          6           0        4.438267    2.017952    0.004840
     57          6           0        5.154360    3.116395    0.801482
     58          6           0        6.662578    2.970983    0.664109
     59          8           0        7.257943    2.330874    1.556033
     60          8           0        7.187969    3.494637   -0.341552
     61          7           0        0.334289   -1.620577    0.411786
     62          7           0       -2.526479   -1.238624    0.215202
     63          7           0       -2.131315    1.643964   -0.216250
     64          7           0        0.775966    1.299035    0.011763
     65         26           0       -0.887415    0.030362    0.104915
     66          1           0       -1.555534   -4.448745    0.866328
     67          1           0       -5.354131    0.500555   -0.494227
     68          1           0       -0.276780    4.509451   -0.522566
     69          1           0       -6.670709   -1.056618    0.347170
     70          1           0       -2.066654    5.619640   -1.474034
     71          1           0        3.568084   -0.595609    0.451880
     72          1           0        1.844035   -5.435218    1.782936
     73          1           0        0.216769   -5.672316    1.154150
     74          1           0        1.599062   -5.707902    0.050030
     75          1           0        4.228560   -2.853126    1.194594
     76          1           0        3.712160   -4.400031    0.542454
     77          1           0        3.594848   -3.353332   -1.703057
     78          1           0        4.296911   -1.878838   -1.092144
     79          1           0       -3.792366   -4.820598    1.770473
     80          1           0       -5.384969   -4.460714    1.118845
     81          1           0       -4.137945   -5.127718    0.048812
     82          1           0       -6.285091   -3.395439   -1.305582
     83          1           0       -7.903600   -2.914978   -0.535991
     84          1           0       -5.967029    3.523551   -0.433805
     85          1           0       -5.245141    4.000488   -2.001078
     86          1           0       -5.801245    2.347387   -1.761480
     87          1           0       -4.731124    5.601047    0.019994
     88          1           0       -3.865649    7.046772   -0.757982
     89          1           0        2.764315    5.040166    0.445051
     90          1           0        3.428866    4.517674   -1.129166
     91          1           0        1.778154    5.100972   -1.024485
     92          1           0        4.813532    1.093968    0.437656
     93          1           0        4.766686    2.032529   -1.035447
     94          1           0        4.895721    4.110882    0.454578
     95          1           0        4.889033    3.036727    1.852884
     96          1           0        0.506972   -1.996587   -5.460975
     97          1           0       -0.781568   -1.156076    5.879658
     98          1           0        7.006387    2.441992    2.475801
     99          1           0        7.020152   -2.305598   -1.728937
 ---------------------------------------------------------------------
 Rotational constants (GHZ):           0.0609941           0.0416827           0.0332069
 Standard basis: def2TZVP (5D, 7F)
 There are  2260 symmetry adapted cartesian basis functions of A   symmetry.
 There are  1983 symmetry adapted basis functions of A   symmetry.
  1983 basis functions,  3208 primitive gaussians,  2260 cartesian basis functions
   207 alpha electrons      202 beta electrons
       nuclear repulsion energy      8826.6401000867 Hartrees.
 NAtoms=   99 NActive=   99 NUniq=   99 SFac= 1.00D+00 NAtFMM=   60 NAOKFM=T Big=T
 Integral buffers will be    131072 words long.
 Raffenetti 2 integral format.
 Two-electron integral symmetry is turned on.
 Nuclear repulsion after empirical dispersion term =     8826.4972895608 Hartrees.
 One-electron integrals computed using PRISM.
   1 Symmetry operations used in ECPInt.
 ECPInt:  NShTT=  308505 NPrTT=  954269 LenC2=  223316 LenP2D=  444497.
 LDataN:  DoStor=T MaxTD1= 6 Len=  172
 NBasis=  1983 RedAO= T EigKep=  3.25D-06  NBF=  1983
 NBsUse=  1983 1.00D-06 EigRej= -1.00D+00 NBFU=  1983
 ExpMin= 4.20D-02 ExpMax= 3.01D+05 ExpMxC= 2.91D+03 IAcc=3 IRadAn=         5 AccDes= 0.00D+00
 Harris functional with IExCor= 1009 and IRadAn=       5 diagonalized for initial guess.
 HarFok:  IExCor= 1009 AccDes= 0.00D+00 IRadAn=         5 IDoV= 1 UseB2=F ITyADJ=14
 ICtDFT=  3500011 ScaDFX=  1.000000  1.000000  1.000000  1.000000
 FoFCou: FMM=F IPFlag=           0 FMFlag=      100000 FMFlg1=        2001
         NFxFlg=           0 DoJE=T BraDBF=F KetDBF=T FulRan=T
         wScrn=  0.000000 ICntrl=       500 IOpCl=  0 I1Cent=   200000004 NGrid=           0
         NMat0=    1 NMatS0=      1 NMatT0=    0 NMatD0=    1 NMtDS0=    0 NMtDT0=    0
 Petite list used in FoFCou.
 Initial guess <Sx>= 0.0000 <Sy>= 0.0000 <Sz>= 2.5000 <S**2>= 8.7500 S= 2.5000
 Requested convergence on RMS density matrix=1.00D-08 within 999 cycles.
 Requested convergence on MAX density matrix=1.00D-06.
 Requested convergence on             energy=1.00D-06.
 No special actions if energy rises.
 EnCoef did   100 forward-backward iterations
 EnCoef did   100 forward-backward iterations
 EnCoef did    14 forward-backward iterations
 EnCoef did     7 forward-backward iterations
 EnCoef did    18 forward-backward iterations
 EnCoef did     2 forward-backward iterations
 Restarting incremental Fock formation.
 SCF Done:  E(UPBE1PBE) =  -3627.49893571     A.U. after   29 cycles
            NFock= 29  Conv=0.70D-08     -V/T= 2.0035
 <Sx>= 0.0000 <Sy>= 0.0000 <Sz>= 2.5000 <S**2>= 8.7573 S= 2.5012
 <L.S>= 0.000000000000E+00
 Annihilation of the first spin contaminant:
 S**2 before annihilation     8.7573,   after     8.7500

 **********************************************************************

            Population analysis using the SCF density.

 **********************************************************************

 Orbital symmetries:
 Alpha Orbitals:
       Occupied  (A) (A) (A) (A) (A) (A) (A) (A) (A) (A) (A) (A)
                 (A) (A) (A) (A) (A) (A) (A) (A) (A) (A) (A) (A)
                 (A) (A) (A) (A) (A) (A) (A) (A) (A) (A) (A) (A)
                 (A) (A) (A) (A) (A) (A) (A) (A) (A) (A) (A) (A)
                 (A) (A) (A) (A) (A) (A) (A) (A) (A) (A) (A) (A)
                 (A) (A) (A) (A) (A) (A) (A) (A) (A) (A) (A) (A)
                 (A) (A) (A) (A) (A) (A) (A) (A) (A) (A) (A) (A)
                 (A) (A) (A) (A) (A) (A) (A) (A) (A) (A) (A) (A)
                 (A) (A) (A) (A) (A) (A) (A) (A) (A) (A) (A) (A)
                 (A) (A) (A) (A) (A) (A) (A) (A) (A) (A) (A) (A)
                 (A) (A) (A) (A) (A) (A) (A) (A) (A) (A) (A) (A)
                 (A) (A) (A) (A) (A) (A) (A) (A) (A) (A) (A) (A)
                 (A) (A) (A) (A) (A) (A) (A) (A) (A) (A) (A) (A)
                 (A) (A) (A) (A) (A) (A) (A) (A) (A) (A) (A) (A)
                 (A) (A) (A) (A) (A) (A) (A) (A) (A) (A) (A) (A)
                 (A) (A) (A) (A) (A) (A) (A) (A) (A) (A) (A) (A)
                 (A) (A) (A) (A) (A) (A) (A) (A) (A) (A) (A) (A)
                 (A) (A) (A)
       Virtual   (A) (A) (A) (A) (A) (A) (A) (A) (A) (A) (A) (A)
                 (A) (A) (A) (A) (A) (A) (A) (A) (A) (A) (A) (A)
                 (A) (A) (A) (A) (A) (A) (A) (A) (A) (A) (A) (A)
                 (A) (A) (A) (A) (A) (A) (A) (A) (A) (A) (A) (A)
                 (A) (A) (A) (A) (A) (A) (A) (A) (A) (A) (A) (A)
                 (A) (A) (A) (A) (A) (A) (A) (A) (A) (A) (A) (A)
                 (A) (A) (A) (A) (A) (A) (A) (A) (A) (A) (A) (A)
                 (A) (A) (A) (A) (A) (A) (A) (A) (A) (A) (A) (A)
                 (A) (A) (A) (A) (A) (A) (A) (A) (A) (A) (A) (A)
                 (A) (A) (A) (A) (A) (A) (A) (A) (A) (A) (A) (A)
                 (A) (A) (A) (A) (A) (A) (A) (A) (A) (A) (A) (A)
                 (A) (A) (A) (A) (A) (A) (A) (A) (A) (A) (A) (A)
                 (A) (A) (A) (A) (A) (A) (A) (A) (A) (A) (A) (A)
                 (A) (A) (A) (A) (A) (A) (A) (A) (A) (A) (A) (A)
                 (A) (A) (A) (A) (A) (A) (A) (A) (A) (A) (A) (A)
                 (A) (A) (A) (A) (A) (A) (A) (A) (A) (A) (A) (A)
                 (A) (A) (A) (A) (A) (A) (A) (A) (A) (A) (A) (A)
                 (A) (A) (A) (A) (A) (A) (A) (A) (A) (A) (A) (A)
                 (A) (A) (A) (A) (A) (A) (A) (A) (A) (A) (A) (A)
                 (A) (A) (A) (A) (A) (A) (A) (A) (A) (A) (A) (A)
                 (A) (A) (A) (A) (A) (A) (A) (A) (A) (A) (A) (A)
                 (A) (A) (A) (A) (A) (A) (A) (A) (A) (A) (A) (A)
                 (A) (A) (A) (A) (A) (A) (A) (A) (A) (A) (A) (A)
                 (A) (A) (A) (A) (A) (A) (A) (A) (A) (A) (A) (A)
                 (A) (A) (A) (A) (A) (A) (A) (A) (A) (A) (A) (A)
                 (A) (A) (A) (A) (A) (A) (A) (A) (A) (A) (A) (A)
                 (A) (A) (A) (A) (A) (A) (A) (A) (A) (A) (A) (A)
                 (A) (A) (A) (A) (A) (A) (A) (A) (A) (A) (A) (A)
                 (A) (A) (A) (A) (A) (A) (A) (A) (A) (A) (A) (A)
                 (A) (A) (A) (A) (A) (A) (A) (A) (A) (A) (A) (A)
                 (A) (A) (A) (A) (A) (A) (A) (A) (A) (A) (A) (A)
                 (A) (A) (A) (A) (A) (A) (A) (A) (A) (A) (A) (A)
                 (A) (A) (A) (A) (A) (A) (A) (A) (A) (A) (A) (A)
                 (A) (A) (A) (A) (A) (A) (A) (A) (A) (A) (A) (A)
                 (A) (A) (A) (A) (A) (A) (A) (A) (A) (A) (A) (A)
                 (A) (A) (A) (A) (A) (A) (A) (A) (A) (A) (A) (A)
                 (A) (A) (A) (A) (A) (A) (A) (A) (A) (A) (A) (A)
                 (A) (A) (A) (A) (A) (A) (A) (A) (A) (A) (A) (A)
                 (A) (A) (A) (A) (A) (A) (A) (A) (A) (A) (A) (A)
                 (A) (A) (A) (A) (A) (A) (A) (A) (A) (A) (A) (A)
                 (A) (A) (A) (A) (A) (A) (A) (A) (A) (A) (A) (A)
                 (A) (A) (A) (A) (A) (A) (A) (A) (A) (A) (A) (A)
                 (A) (A) (A) (A) (A) (A) (A) (A) (A) (A) (A) (A)
                 (A) (A) (A) (A) (A) (A) (A) (A) (A) (A) (A) (A)
                 (A) (A) (A) (A) (A) (A) (A) (A) (A) (A) (A) (A)
                 (A) (A) (A) (A) (A) (A) (A) (A) (A) (A) (A) (A)
                 (A) (A) (A) (A) (A) (A) (A) (A) (A) (A) (A) (A)
                 (A) (A) (A) (A) (A) (A) (A) (A) (A) (A) (A) (A)
                 (A) (A) (A) (A) (A) (A) (A) (A) (A) (A) (A) (A)
                 (A) (A) (A) (A) (A) (A) (A) (A) (A) (A) (A) (A)
                 (A) (A) (A) (A) (A) (A) (A) (A) (A) (A) (A) (A)
                 (A) (A) (A) (A) (A) (A) (A) (A) (A) (A) (A) (A)
                 (A) (A) (A) (A) (A) (A) (A) (A) (A) (A) (A) (A)
                 (A) (A) (A) (A) (A) (A) (A) (A) (A) (A) (A) (A)
                 (A) (A) (A) (A) (A) (A) (A) (A) (A) (A) (A) (A)
                 (A) (A) (A) (A) (A) (A) (A) (A) (A) (A) (A) (A)
                 (A) (A) (A) (A) (A) (A) (A) (A) (A) (A) (A) (A)
                 (A) (A) (A) (A) (A) (A) (A) (A) (A) (A) (A) (A)
                 (A) (A) (A) (A) (A) (A) (A) (A) (A) (A) (A) (A)
                 (A) (A) (A) (A) (A) (A) (A) (A) (A) (A) (A) (A)
                 (A) (A) (A) (A) (A) (A) (A) (A) (A) (A) (A) (A)
                 (A) (A) (A) (A) (A) (A) (A) (A) (A) (A) (A) (A)
                 (A) (A) (A) (A) (A) (A) (A) (A) (A) (A) (A) (A)
                 (A) (A) (A) (A) (A) (A) (A) (A) (A) (A) (A) (A)
                 (A) (A) (A) (A) (A) (A) (A) (A) (A) (A) (A) (A)
                 (A) (A) (A) (A) (A) (A) (A) (A) (A) (A) (A) (A)
                 (A) (A) (A) (A) (A) (A) (A) (A) (A) (A) (A) (A)
                 (A) (A) (A) (A) (A) (A) (A) (A) (A) (A) (A) (A)
                 (A) (A) (A) (A) (A) (A) (A) (A) (A) (A) (A) (A)
                 (A) (A) (A) (A) (A) (A) (A) (A) (A) (A) (A) (A)
                 (A) (A) (A) (A) (A) (A) (A) (A) (A) (A) (A) (A)
                 (A) (A) (A) (A) (A) (A) (A) (A) (A) (A) (A) (A)
                 (A) (A) (A) (A) (A) (A) (A) (A) (A) (A) (A) (A)
                 (A) (A) (A) (A) (A) (A) (A) (A) (A) (A) (A) (A)
                 (A) (A) (A) (A) (A) (A) (A) (A) (A) (A) (A) (A)
                 (A) (A) (A) (A) (A) (A) (A) (A) (A) (A) (A) (A)
                 (A) (A) (A) (A) (A) (A) (A) (A) (A) (A) (A) (A)
                 (A) (A) (A) (A) (A) (A) (A) (A) (A) (A) (A) (A)
                 (A) (A) (A) (A) (A) (A) (A) (A) (A) (A) (A) (A)
                 (A) (A) (A) (A) (A) (A) (A) (A) (A) (A) (A) (A)
                 (A) (A) (A) (A) (A) (A) (A) (A) (A) (A) (A) (A)
                 (A) (A) (A) (A) (A) (A) (A) (A) (A) (A) (A) (A)
                 (A) (A) (A) (A) (A) (A) (A) (A) (A) (A) (A) (A)
                 (A) (A) (A) (A) (A) (A) (A) (A) (A) (A) (A) (A)
                 (A) (A) (A) (A) (A) (A) (A) (A) (A) (A) (A) (A)
                 (A) (A) (A) (A) (A) (A) (A) (A) (A) (A) (A) (A)
                 (A) (A) (A) (A) (A) (A) (A) (A) (A) (A) (A) (A)
                 (A) (A) (A) (A) (A) (A) (A) (A) (A) (A) (A) (A)
                 (A) (A) (A) (A) (A) (A) (A) (A) (A) (A) (A) (A)
                 (A) (A) (A) (A) (A) (A) (A) (A) (A) (A) (A) (A)
                 (A) (A) (A) (A) (A) (A) (A) (A) (A) (A) (A) (A)
                 (A) (A) (A) (A) (A) (A) (A) (A) (A) (A) (A) (A)
                 (A) (A) (A) (A) (A) (A) (A) (A) (A) (A) (A) (A)
                 (A) (A) (A) (A) (A) (A) (A) (A) (A) (A) (A) (A)
                 (A) (A) (A) (A) (A) (A) (A) (A) (A) (A) (A) (A)
                 (A) (A) (A) (A) (A) (A) (A) (A) (A) (A) (A) (A)
                 (A) (A) (A) (A) (A) (A) (A) (A) (A) (A) (A) (A)
                 (A) (A) (A) (A) (A) (A) (A) (A) (A) (A) (A) (A)
                 (A) (A) (A) (A) (A) (A) (A) (A) (A) (A) (A) (A)
                 (A) (A) (A) (A) (A) (A) (A) (A) (A) (A) (A) (A)
                 (A) (A) (A) (A) (A) (A) (A) (A) (A) (A) (A) (A)
                 (A) (A) (A) (A) (A) (A) (A) (A) (A) (A) (A) (A)
                 (A) (A) (A) (A) (A) (A) (A) (A) (A) (A) (A) (A)
                 (A) (A) (A) (A) (A) (A) (A) (A) (A) (A) (A) (A)
                 (A) (A) (A) (A) (A) (A) (A) (A) (A) (A) (A) (A)
                 (A) (A) (A) (A) (A) (A) (A) (A) (A) (A) (A) (A)
                 (A) (A) (A) (A) (A) (A) (A) (A) (A) (A) (A) (A)
                 (A) (A) (A) (A) (A) (A) (A) (A) (A) (A) (A) (A)
                 (A) (A) (A) (A) (A) (A) (A) (A) (A) (A) (A) (A)
                 (A) (A) (A) (A) (A) (A) (A) (A) (A) (A) (A) (A)
                 (A) (A) (A) (A) (A) (A) (A) (A) (A) (A) (A) (A)
                 (A) (A) (A) (A) (A) (A) (A) (A) (A) (A) (A) (A)
                 (A) (A) (A) (A) (A) (A) (A) (A) (A) (A) (A) (A)
                 (A) (A) (A) (A) (A) (A) (A) (A) (A) (A) (A) (A)
                 (A) (A) (A) (A) (A) (A) (A) (A) (A) (A) (A) (A)
                 (A) (A) (A) (A) (A) (A) (A) (A) (A) (A) (A) (A)
                 (A) (A) (A) (A) (A) (A) (A) (A) (A) (A) (A) (A)
                 (A) (A) (A) (A) (A) (A) (A) (A) (A) (A) (A) (A)
                 (A) (A) (A) (A) (A) (A) (A) (A) (A) (A) (A) (A)
                 (A) (A) (A) (A) (A) (A) (A) (A) (A) (A) (A) (A)
                 (A) (A) (A) (A) (A) (A) (A) (A) (A) (A) (A) (A)
                 (A) (A) (A) (A) (A) (A) (A) (A) (A) (A) (A) (A)
                 (A) (A) (A) (A) (A) (A) (A) (A) (A) (A) (A) (A)
                 (A) (A) (A) (A) (A) (A) (A) (A) (A) (A) (A) (A)
                 (A) (A) (A) (A) (A) (A) (A) (A) (A) (A) (A) (A)
                 (A) (A) (A) (A) (A) (A) (A) (A) (A) (A) (A) (A)
                 (A) (A) (A) (A) (A) (A) (A) (A) (A) (A) (A) (A)
                 (A) (A) (A) (A) (A) (A) (A) (A) (A) (A) (A) (A)
                 (A) (A) (A) (A) (A) (A) (A) (A) (A) (A) (A) (A)
                 (A) (A) (A) (A) (A) (A) (A) (A) (A) (A) (A) (A)
                 (A) (A) (A) (A) (A) (A) (A) (A) (A) (A) (A) (A)
                 (A) (A) (A) (A) (A) (A) (A) (A) (A) (A) (A) (A)
                 (A) (A) (A) (A) (A) (A) (A) (A) (A) (A) (A) (A)
                 (A) (A) (A) (A) (A) (A) (A) (A) (A) (A) (A) (A)
                 (A) (A) (A) (A) (A) (A) (A) (A) (A) (A) (A) (A)
                 (A) (A) (A) (A) (A) (A) (A) (A) (A) (A) (A) (A)
                 (A) (A) (A) (A) (A) (A) (A) (A) (A) (A) (A) (A)
                 (A) (A) (A) (A) (A) (A) (A) (A) (A) (A) (A) (A)
                 (A) (A) (A) (A) (A) (A) (A) (A) (A) (A) (A) (A)
                 (A) (A) (A) (A) (A) (A) (A) (A) (A) (A) (A) (A)
                 (A) (A) (A) (A) (A) (A) (A) (A) (A) (A) (A) (A)
                 (A) (A) (A) (A) (A) (A) (A) (A) (A) (A) (A) (A)
                 (A) (A) (A) (A) (A) (A) (A) (A) (A) (A) (A) (A)
                 (A) (A) (A) (A) (A) (A) (A) (A) (A) (A) (A) (A)
                 (A) (A) (A) (A) (A) (A) (A) (A) (A) (A) (A) (A)
                 (A) (A) (A) (A) (A) (A) (A) (A) (A) (A) (A) (A)
                 (A) (A) (A) (A) (A) (A) (A) (A) (A) (A) (A) (A)
                 (A) (A) (A) (A) (A) (A) (A) (A) (A) (A) (A) (A)
 Beta  Orbitals:
       Occupied  (A) (A) (A) (A) (A) (A) (A) (A) (A) (A) (A) (A)
                 (A) (A) (A) (A) (A) (A) (A) (A) (A) (A) (A) (A)
                 (A) (A) (A) (A) (A) (A) (A) (A) (A) (A) (A) (A)
                 (A) (A) (A) (A) (A) (A) (A) (A) (A) (A) (A) (A)
                 (A) (A) (A) (A) (A) (A) (A) (A) (A) (A) (A) (A)
                 (A) (A) (A) (A) (A) (A) (A) (A) (A) (A) (A) (A)
                 (A) (A) (A) (A) (A) (A) (A) (A) (A) (A) (A) (A)
                 (A) (A) (A) (A) (A) (A) (A) (A) (A) (A) (A) (A)
                 (A) (A) (A) (A) (A) (A) (A) (A) (A) (A) (A) (A)
                 (A) (A) (A) (A) (A) (A) (A) (A) (A) (A) (A) (A)
                 (A) (A) (A) (A) (A) (A) (A) (A) (A) (A) (A) (A)
                 (A) (A) (A) (A) (A) (A) (A) (A) (A) (A) (A) (A)
                 (A) (A) (A) (A) (A) (A) (A) (A) (A) (A) (A) (A)
                 (A) (A) (A) (A) (A) (A) (A) (A) (A) (A) (A) (A)
                 (A) (A) (A) (A) (A) (A) (A) (A) (A) (A) (A) (A)
                 (A) (A) (A) (A) (A) (A) (A) (A) (A) (A) (A) (A)
                 (A) (A) (A) (A) (A) (A) (A) (A) (A) (A)
       Virtual   (A) (A) (A) (A) (A) (A) (A) (A) (A) (A) (A) (A)
                 (A) (A) (A) (A) (A) (A) (A) (A) (A) (A) (A) (A)
                 (A) (A) (A) (A) (A) (A) (A) (A) (A) (A) (A) (A)
                 (A) (A) (A) (A) (A) (A) (A) (A) (A) (A) (A) (A)
                 (A) (A) (A) (A) (A) (A) (A) (A) (A) (A) (A) (A)
                 (A) (A) (A) (A) (A) (A) (A) (A) (A) (A) (A) (A)
                 (A) (A) (A) (A) (A) (A) (A) (A) (A) (A) (A) (A)
                 (A) (A) (A) (A) (A) (A) (A) (A) (A) (A) (A) (A)
                 (A) (A) (A) (A) (A) (A) (A) (A) (A) (A) (A) (A)
                 (A) (A) (A) (A) (A) (A) (A) (A) (A) (A) (A) (A)
                 (A) (A) (A) (A) (A) (A) (A) (A) (A) (A) (A) (A)
                 (A) (A) (A) (A) (A) (A) (A) (A) (A) (A) (A) (A)
                 (A) (A) (A) (A) (A) (A) (A) (A) (A) (A) (A) (A)
                 (A) (A) (A) (A) (A) (A) (A) (A) (A) (A) (A) (A)
                 (A) (A) (A) (A) (A) (A) (A) (A) (A) (A) (A) (A)
                 (A) (A) (A) (A) (A) (A) (A) (A) (A) (A) (A) (A)
                 (A) (A) (A) (A) (A) (A) (A) (A) (A) (A) (A) (A)
                 (A) (A) (A) (A) (A) (A) (A) (A) (A) (A) (A) (A)
                 (A) (A) (A) (A) (A) (A) (A) (A) (A) (A) (A) (A)
                 (A) (A) (A) (A) (A) (A) (A) (A) (A) (A) (A) (A)
                 (A) (A) (A) (A) (A) (A) (A) (A) (A) (A) (A) (A)
                 (A) (A) (A) (A) (A) (A) (A) (A) (A) (A) (A) (A)
                 (A) (A) (A) (A) (A) (A) (A) (A) (A) (A) (A) (A)
                 (A) (A) (A) (A) (A) (A) (A) (A) (A) (A) (A) (A)
                 (A) (A) (A) (A) (A) (A) (A) (A) (A) (A) (A) (A)
                 (A) (A) (A) (A) (A) (A) (A) (A) (A) (A) (A) (A)
                 (A) (A) (A) (A) (A) (A) (A) (A) (A) (A) (A) (A)
                 (A) (A) (A) (A) (A) (A) (A) (A) (A) (A) (A) (A)
                 (A) (A) (A) (A) (A) (A) (A) (A) (A) (A) (A) (A)
                 (A) (A) (A) (A) (A) (A) (A) (A) (A) (A) (A) (A)
                 (A) (A) (A) (A) (A) (A) (A) (A) (A) (A) (A) (A)
                 (A) (A) (A) (A) (A) (A) (A) (A) (A) (A) (A) (A)
                 (A) (A) (A) (A) (A) (A) (A) (A) (A) (A) (A) (A)
                 (A) (A) (A) (A) (A) (A) (A) (A) (A) (A) (A) (A)
                 (A) (A) (A) (A) (A) (A) (A) (A) (A) (A) (A) (A)
                 (A) (A) (A) (A) (A) (A) (A) (A) (A) (A) (A) (A)
                 (A) (A) (A) (A) (A) (A) (A) (A) (A) (A) (A) (A)
                 (A) (A) (A) (A) (A) (A) (A) (A) (A) (A) (A) (A)
                 (A) (A) (A) (A) (A) (A) (A) (A) (A) (A) (A) (A)
                 (A) (A) (A) (A) (A) (A) (A) (A) (A) (A) (A) (A)
                 (A) (A) (A) (A) (A) (A) (A) (A) (A) (A) (A) (A)
                 (A) (A) (A) (A) (A) (A) (A) (A) (A) (A) (A) (A)
                 (A) (A) (A) (A) (A) (A) (A) (A) (A) (A) (A) (A)
                 (A) (A) (A) (A) (A) (A) (A) (A) (A) (A) (A) (A)
                 (A) (A) (A) (A) (A) (A) (A) (A) (A) (A) (A) (A)
                 (A) (A) (A) (A) (A) (A) (A) (A) (A) (A) (A) (A)
                 (A) (A) (A) (A) (A) (A) (A) (A) (A) (A) (A) (A)
                 (A) (A) (A) (A) (A) (A) (A) (A) (A) (A) (A) (A)
                 (A) (A) (A) (A) (A) (A) (A) (A) (A) (A) (A) (A)
                 (A) (A) (A) (A) (A) (A) (A) (A) (A) (A) (A) (A)
                 (A) (A) (A) (A) (A) (A) (A) (A) (A) (A) (A) (A)
                 (A) (A) (A) (A) (A) (A) (A) (A) (A) (A) (A) (A)
                 (A) (A) (A) (A) (A) (A) (A) (A) (A) (A) (A) (A)
                 (A) (A) (A) (A) (A) (A) (A) (A) (A) (A) (A) (A)
                 (A) (A) (A) (A) (A) (A) (A) (A) (A) (A) (A) (A)
                 (A) (A) (A) (A) (A) (A) (A) (A) (A) (A) (A) (A)
                 (A) (A) (A) (A) (A) (A) (A) (A) (A) (A) (A) (A)
                 (A) (A) (A) (A) (A) (A) (A) (A) (A) (A) (A) (A)
                 (A) (A) (A) (A) (A) (A) (A) (A) (A) (A) (A) (A)
                 (A) (A) (A) (A) (A) (A) (A) (A) (A) (A) (A) (A)
                 (A) (A) (A) (A) (A) (A) (A) (A) (A) (A) (A) (A)
                 (A) (A) (A) (A) (A) (A) (A) (A) (A) (A) (A) (A)
                 (A) (A) (A) (A) (A) (A) (A) (A) (A) (A) (A) (A)
                 (A) (A) (A) (A) (A) (A) (A) (A) (A) (A) (A) (A)
                 (A) (A) (A) (A) (A) (A) (A) (A) (A) (A) (A) (A)
                 (A) (A) (A) (A) (A) (A) (A) (A) (A) (A) (A) (A)
                 (A) (A) (A) (A) (A) (A) (A) (A) (A) (A) (A) (A)
                 (A) (A) (A) (A) (A) (A) (A) (A) (A) (A) (A) (A)
                 (A) (A) (A) (A) (A) (A) (A) (A) (A) (A) (A) (A)
                 (A) (A) (A) (A) (A) (A) (A) (A) (A) (A) (A) (A)
                 (A) (A) (A) (A) (A) (A) (A) (A) (A) (A) (A) (A)
                 (A) (A) (A) (A) (A) (A) (A) (A) (A) (A) (A) (A)
                 (A) (A) (A) (A) (A) (A) (A) (A) (A) (A) (A) (A)
                 (A) (A) (A) (A) (A) (A) (A) (A) (A) (A) (A) (A)
                 (A) (A) (A) (A) (A) (A) (A) (A) (A) (A) (A) (A)
                 (A) (A) (A) (A) (A) (A) (A) (A) (A) (A) (A) (A)
                 (A) (A) (A) (A) (A) (A) (A) (A) (A) (A) (A) (A)
                 (A) (A) (A) (A) (A) (A) (A) (A) (A) (A) (A) (A)
                 (A) (A) (A) (A) (A) (A) (A) (A) (A) (A) (A) (A)
                 (A) (A) (A) (A) (A) (A) (A) (A) (A) (A) (A) (A)
                 (A) (A) (A) (A) (A) (A) (A) (A) (A) (A) (A) (A)
                 (A) (A) (A) (A) (A) (A) (A) (A) (A) (A) (A) (A)
                 (A) (A) (A) (A) (A) (A) (A) (A) (A) (A) (A) (A)
                 (A) (A) (A) (A) (A) (A) (A) (A) (A) (A) (A) (A)
                 (A) (A) (A) (A) (A) (A) (A) (A) (A) (A) (A) (A)
                 (A) (A) (A) (A) (A) (A) (A) (A) (A) (A) (A) (A)
                 (A) (A) (A) (A) (A) (A) (A) (A) (A) (A) (A) (A)
                 (A) (A) (A) (A) (A) (A) (A) (A) (A) (A) (A) (A)
                 (A) (A) (A) (A) (A) (A) (A) (A) (A) (A) (A) (A)
                 (A) (A) (A) (A) (A) (A) (A) (A) (A) (A) (A) (A)
                 (A) (A) (A) (A) (A) (A) (A) (A) (A) (A) (A) (A)
                 (A) (A) (A) (A) (A) (A) (A) (A) (A) (A) (A) (A)
                 (A) (A) (A) (A) (A) (A) (A) (A) (A) (A) (A) (A)
                 (A) (A) (A) (A) (A) (A) (A) (A) (A) (A) (A) (A)
                 (A) (A) (A) (A) (A) (A) (A) (A) (A) (A) (A) (A)
                 (A) (A) (A) (A) (A) (A) (A) (A) (A) (A) (A) (A)
                 (A) (A) (A) (A) (A) (A) (A) (A) (A) (A) (A) (A)
                 (A) (A) (A) (A) (A) (A) (A) (A) (A) (A) (A) (A)
                 (A) (A) (A) (A) (A) (A) (A) (A) (A) (A) (A) (A)
                 (A) (A) (A) (A) (A) (A) (A) (A) (A) (A) (A) (A)
                 (A) (A) (A) (A) (A) (A) (A) (A) (A) (A) (A) (A)
                 (A) (A) (A) (A) (A) (A) (A) (A) (A) (A) (A) (A)
                 (A) (A) (A) (A) (A) (A) (A) (A) (A) (A) (A) (A)
                 (A) (A) (A) (A) (A) (A) (A) (A) (A) (A) (A) (A)
                 (A) (A) (A) (A) (A) (A) (A) (A) (A) (A) (A) (A)
                 (A) (A) (A) (A) (A) (A) (A) (A) (A) (A) (A) (A)
                 (A) (A) (A) (A) (A) (A) (A) (A) (A) (A) (A) (A)
                 (A) (A) (A) (A) (A) (A) (A) (A) (A) (A) (A) (A)
                 (A) (A) (A) (A) (A) (A) (A) (A) (A) (A) (A) (A)
                 (A) (A) (A) (A) (A) (A) (A) (A) (A) (A) (A) (A)
                 (A) (A) (A) (A) (A) (A) (A) (A) (A) (A) (A) (A)
                 (A) (A) (A) (A) (A) (A) (A) (A) (A) (A) (A) (A)
                 (A) (A) (A) (A) (A) (A) (A) (A) (A) (A) (A) (A)
                 (A) (A) (A) (A) (A) (A) (A) (A) (A) (A) (A) (A)
                 (A) (A) (A) (A) (A) (A) (A) (A) (A) (A) (A) (A)
                 (A) (A) (A) (A) (A) (A) (A) (A) (A) (A) (A) (A)
                 (A) (A) (A) (A) (A) (A) (A) (A) (A) (A) (A) (A)
                 (A) (A) (A) (A) (A) (A) (A) (A) (A) (A) (A) (A)
                 (A) (A) (A) (A) (A) (A) (A) (A) (A) (A) (A) (A)
                 (A) (A) (A) (A) (A) (A) (A) (A) (A) (A) (A) (A)
                 (A) (A) (A) (A) (A) (A) (A) (A) (A) (A) (A) (A)
                 (A) (A) (A) (A) (A) (A) (A) (A) (A) (A) (A) (A)
                 (A) (A) (A) (A) (A) (A) (A) (A) (A) (A) (A) (A)
                 (A) (A) (A) (A) (A) (A) (A) (A) (A) (A) (A) (A)
                 (A) (A) (A) (A) (A) (A) (A) (A) (A) (A) (A) (A)
                 (A) (A) (A) (A) (A) (A) (A) (A) (A) (A) (A) (A)
                 (A) (A) (A) (A) (A) (A) (A) (A) (A) (A) (A) (A)
                 (A) (A) (A) (A) (A) (A) (A) (A) (A) (A) (A) (A)
                 (A) (A) (A) (A) (A) (A) (A) (A) (A) (A) (A) (A)
                 (A) (A) (A) (A) (A) (A) (A) (A) (A) (A) (A) (A)
                 (A) (A) (A) (A) (A) (A) (A) (A) (A) (A) (A) (A)
                 (A) (A) (A) (A) (A) (A) (A) (A) (A) (A) (A) (A)
                 (A) (A) (A) (A) (A) (A) (A) (A) (A) (A) (A) (A)
                 (A) (A) (A) (A) (A) (A) (A) (A) (A) (A) (A) (A)
                 (A) (A) (A) (A) (A) (A) (A) (A) (A) (A) (A) (A)
                 (A) (A) (A) (A) (A) (A) (A) (A) (A) (A) (A) (A)
                 (A) (A) (A) (A) (A) (A) (A) (A) (A) (A) (A) (A)
                 (A) (A) (A) (A) (A) (A) (A) (A) (A) (A) (A) (A)
                 (A) (A) (A) (A) (A) (A) (A) (A) (A) (A) (A) (A)
                 (A) (A) (A) (A) (A) (A) (A) (A) (A) (A) (A) (A)
                 (A) (A) (A) (A) (A) (A) (A) (A) (A) (A) (A) (A)
                 (A) (A) (A) (A) (A) (A) (A) (A) (A) (A) (A) (A)
                 (A) (A) (A) (A) (A) (A) (A) (A) (A) (A) (A) (A)
                 (A) (A) (A) (A) (A) (A) (A) (A) (A) (A) (A) (A)
                 (A) (A) (A) (A) (A) (A) (A) (A) (A) (A) (A) (A)
                 (A) (A) (A) (A) (A) (A) (A) (A) (A) (A) (A) (A)
                 (A) (A) (A) (A) (A) (A) (A) (A) (A) (A) (A) (A)
                 (A) (A) (A) (A) (A) (A) (A) (A) (A) (A) (A) (A)
                 (A) (A) (A) (A) (A)
 The electronic state is 6-A.
 Alpha  occ. eigenvalues -- -256.54498 -30.37351 -26.19017 -26.18993 -26.18895
 Alpha  occ. eigenvalues --  -19.34014 -19.32295 -19.25275 -19.24937 -14.55828
 Alpha  occ. eigenvalues --  -14.55634 -14.50529 -14.50375 -14.47361 -14.47344
 Alpha  occ. eigenvalues --  -14.47251 -14.47022 -10.42396 -10.42359 -10.39657
 Alpha  occ. eigenvalues --  -10.39303 -10.36518 -10.36431 -10.35709 -10.35438
 Alpha  occ. eigenvalues --  -10.35389 -10.35344 -10.35325 -10.35244 -10.35068
 Alpha  occ. eigenvalues --  -10.34971 -10.34225 -10.34169 -10.33217 -10.32721
 Alpha  occ. eigenvalues --  -10.32696 -10.32511 -10.32215 -10.32191 -10.32189
 Alpha  occ. eigenvalues --  -10.32104 -10.32090 -10.32084 -10.32012 -10.31938
 Alpha  occ. eigenvalues --  -10.31691 -10.31634 -10.31508 -10.31429 -10.31410
 Alpha  occ. eigenvalues --  -10.31082 -10.30673 -10.30493 -10.30455 -10.30300
 Alpha  occ. eigenvalues --  -10.30052 -10.30024 -10.29698 -10.29511  -3.79977
 Alpha  occ. eigenvalues --   -2.56066  -2.56028  -2.55978  -1.24383  -1.23398
 Alpha  occ. eigenvalues --   -1.16351  -1.16075  -1.09978  -1.09844  -1.08714
 Alpha  occ. eigenvalues --   -1.07785  -1.07767  -1.06864  -1.01935  -1.01756
 Alpha  occ. eigenvalues --   -0.93966  -0.92392  -0.92043  -0.91839  -0.91506
 Alpha  occ. eigenvalues --   -0.91245  -0.91102  -0.90746  -0.90674  -0.87853
 Alpha  occ. eigenvalues --   -0.87128  -0.86321  -0.86025  -0.85674  -0.83330
 Alpha  occ. eigenvalues --   -0.82014  -0.81766  -0.81161  -0.80887  -0.80200
 Alpha  occ. eigenvalues --   -0.78796  -0.77772  -0.77183  -0.76123  -0.76007
 Alpha  occ. eigenvalues --   -0.75929  -0.75493  -0.74612  -0.72719  -0.72562
 Alpha  occ. eigenvalues --   -0.72452  -0.70184  -0.69321  -0.69314  -0.69106
 Alpha  occ. eigenvalues --   -0.66769  -0.66484  -0.65380  -0.64578  -0.63981
 Alpha  occ. eigenvalues --   -0.63593  -0.62690  -0.62338  -0.61738  -0.61410
 Alpha  occ. eigenvalues --   -0.60800  -0.60438  -0.60106  -0.58863  -0.58787
 Alpha  occ. eigenvalues --   -0.58649  -0.58555  -0.58157  -0.57663  -0.57560
 Alpha  occ. eigenvalues --   -0.57116  -0.56836  -0.56370  -0.55950  -0.55887
 Alpha  occ. eigenvalues --   -0.55804  -0.55551  -0.55216  -0.55158  -0.54746
 Alpha  occ. eigenvalues --   -0.54308  -0.54220  -0.53740  -0.53535  -0.53412
 Alpha  occ. eigenvalues --   -0.53307  -0.53105  -0.53019  -0.52774  -0.52703
 Alpha  occ. eigenvalues --   -0.52366  -0.52255  -0.52017  -0.51899  -0.51778
 Alpha  occ. eigenvalues --   -0.51564  -0.51447  -0.51039  -0.50856  -0.50749
 Alpha  occ. eigenvalues --   -0.50432  -0.50086  -0.49947  -0.49646  -0.49597
 Alpha  occ. eigenvalues --   -0.49073  -0.48821  -0.48623  -0.48330  -0.47990
 Alpha  occ. eigenvalues --   -0.47490  -0.47372  -0.47039  -0.46547  -0.46456
 Alpha  occ. eigenvalues --   -0.46080  -0.46002  -0.45832  -0.45403  -0.44432
 Alpha  occ. eigenvalues --   -0.44208  -0.43815  -0.43263  -0.43026  -0.42542
 Alpha  occ. eigenvalues --   -0.41789  -0.41466  -0.41386  -0.40420  -0.40299
 Alpha  occ. eigenvalues --   -0.39693  -0.39313  -0.38907  -0.37681  -0.36958
 Alpha  occ. eigenvalues --   -0.34890  -0.34780  -0.34483  -0.34449  -0.34078
 Alpha  occ. eigenvalues --   -0.33235  -0.33125  -0.32801  -0.32378  -0.31997
 Alpha  occ. eigenvalues --   -0.29991  -0.29336
 Alpha virt. eigenvalues --   -0.17995  -0.17910  -0.12110  -0.09429  -0.09384
 Alpha virt. eigenvalues --   -0.08859  -0.08284  -0.08250  -0.07542  -0.06810
 Alpha virt. eigenvalues --   -0.06048  -0.05928  -0.05755  -0.05193  -0.04842
 Alpha virt. eigenvalues --   -0.04672  -0.03867  -0.03825  -0.02933  -0.02684
 Alpha virt. eigenvalues --   -0.02402  -0.02066  -0.02005  -0.01648  -0.01450
 Alpha virt. eigenvalues --   -0.01037  -0.00642  -0.00438  -0.00009   0.00437
 Alpha virt. eigenvalues --    0.00617   0.00763   0.00970   0.01247   0.01441
 Alpha virt. eigenvalues --    0.01828   0.02262   0.02646   0.02881   0.03075
 Alpha virt. eigenvalues --    0.03211   0.03498   0.03505   0.03614   0.03775
 Alpha virt. eigenvalues --    0.04010   0.04347   0.04463   0.04748   0.05016
 Alpha virt. eigenvalues --    0.05185   0.05276   0.05651   0.05795   0.06059
 Alpha virt. eigenvalues --    0.06070   0.06119   0.06241   0.06371   0.06701
 Alpha virt. eigenvalues --    0.06858   0.06979   0.07178   0.07303   0.07504
 Alpha virt. eigenvalues --    0.07637   0.07937   0.08494   0.08557   0.08745
 Alpha virt. eigenvalues --    0.08832   0.08996   0.09266   0.09339   0.09488
 Alpha virt. eigenvalues --    0.09878   0.10030   0.10241   0.10689   0.10926
 Alpha virt. eigenvalues --    0.11529   0.11658   0.11811   0.12057   0.12286
 Alpha virt. eigenvalues --    0.12375   0.12509   0.12652   0.12971   0.13118
 Alpha virt. eigenvalues --    0.13399   0.13580   0.13782   0.13891   0.14003
 Alpha virt. eigenvalues --    0.14169   0.14430   0.14546   0.14772   0.14967
 Alpha virt. eigenvalues --    0.15078   0.15160   0.15503   0.15797   0.15840
 Alpha virt. eigenvalues --    0.16206   0.16384   0.16608   0.16808   0.16935
 Alpha virt. eigenvalues --    0.17379   0.17440   0.17544   0.17912   0.18095
 Alpha virt. eigenvalues --    0.18402   0.18546   0.18721   0.18894   0.18946
 Alpha virt. eigenvalues --    0.19126   0.19333   0.19574   0.19762   0.19787
 Alpha virt. eigenvalues --    0.20051   0.20188   0.20722   0.20955   0.21031
 Alpha virt. eigenvalues --    0.21235   0.21403   0.21533   0.21859   0.22030
 Alpha virt. eigenvalues --    0.22302   0.22579   0.22667   0.22858   0.23209
 Alpha virt. eigenvalues --    0.23424   0.23480   0.23685   0.23949   0.24034
 Alpha virt. eigenvalues --    0.24488   0.24714   0.25144   0.25206   0.25483
 Alpha virt. eigenvalues --    0.25587   0.25739   0.26194   0.26378   0.26495
 Alpha virt. eigenvalues --    0.26566   0.26861   0.27169   0.27455   0.27743
 Alpha virt. eigenvalues --    0.27767   0.27951   0.28248   0.28306   0.28630
 Alpha virt. eigenvalues --    0.28882   0.29033   0.29266   0.29446   0.29642
 Alpha virt. eigenvalues --    0.29847   0.29933   0.30081   0.30202   0.30530
 Alpha virt. eigenvalues --    0.30628   0.30981   0.31167   0.31236   0.31344
 Alpha virt. eigenvalues --    0.31475   0.31704   0.32167   0.32184   0.32312
 Alpha virt. eigenvalues --    0.32589   0.32736   0.32757   0.32837   0.33235
 Alpha virt. eigenvalues --    0.33296   0.33473   0.33724   0.33986   0.34082
 Alpha virt. eigenvalues --    0.34377   0.34486   0.34534   0.34697   0.34992
 Alpha virt. eigenvalues --    0.35155   0.35392   0.35536   0.35708   0.35878
 Alpha virt. eigenvalues --    0.36158   0.36290   0.36531   0.36555   0.36706
 Alpha virt. eigenvalues --    0.36856   0.36913   0.37096   0.37374   0.37554
 Alpha virt. eigenvalues --    0.37941   0.37994   0.38201   0.38274   0.38479
 Alpha virt. eigenvalues --    0.38661   0.38766   0.38992   0.39170   0.39393
 Alpha virt. eigenvalues --    0.39441   0.39760   0.39860   0.40104   0.40181
 Alpha virt. eigenvalues --    0.40495   0.40641   0.40646   0.40876   0.40919
 Alpha virt. eigenvalues --    0.41154   0.41338   0.41426   0.41527   0.41718
 Alpha virt. eigenvalues --    0.41989   0.42199   0.42280   0.42376   0.42473
 Alpha virt. eigenvalues --    0.42730   0.43019   0.43053   0.43408   0.43587
 Alpha virt. eigenvalues --    0.43868   0.43993   0.44182   0.44303   0.44490
 Alpha virt. eigenvalues --    0.44780   0.45064   0.45156   0.45395   0.45722
 Alpha virt. eigenvalues --    0.45788   0.45901   0.46147   0.46230   0.46603
 Alpha virt. eigenvalues --    0.46780   0.46901   0.47105   0.47424   0.47740
 Alpha virt. eigenvalues --    0.48014   0.48164   0.48412   0.48432   0.48704
 Alpha virt. eigenvalues --    0.48858   0.48940   0.49176   0.49295   0.49443
 Alpha virt. eigenvalues --    0.49739   0.50031   0.50347   0.50396   0.50539
 Alpha virt. eigenvalues --    0.50709   0.50821   0.51246   0.51527   0.51811
 Alpha virt. eigenvalues --    0.51995   0.52160   0.52340   0.52962   0.53045
 Alpha virt. eigenvalues --    0.53176   0.53317   0.53532   0.53903   0.54111
 Alpha virt. eigenvalues --    0.54397   0.54477   0.54689   0.54813   0.55094
 Alpha virt. eigenvalues --    0.55393   0.55765   0.55942   0.56116   0.56497
 Alpha virt. eigenvalues --    0.56539   0.56891   0.57293   0.57589   0.58063
 Alpha virt. eigenvalues --    0.58143   0.58359   0.58806   0.58894   0.59104
 Alpha virt. eigenvalues --    0.59398   0.59453   0.59790   0.60177   0.60369
 Alpha virt. eigenvalues --    0.60725   0.60976   0.61231   0.61431   0.61604
 Alpha virt. eigenvalues --    0.61790   0.62060   0.62308   0.62602   0.62898
 Alpha virt. eigenvalues --    0.63039   0.63449   0.63858   0.63983   0.64311
 Alpha virt. eigenvalues --    0.64807   0.65002   0.65535   0.65749   0.66048
 Alpha virt. eigenvalues --    0.66109   0.66329   0.66726   0.66992   0.67202
 Alpha virt. eigenvalues --    0.67495   0.67519   0.67874   0.68163   0.68739
 Alpha virt. eigenvalues --    0.68953   0.68987   0.69196   0.69408   0.70001
 Alpha virt. eigenvalues --    0.70059   0.70533   0.71009   0.71244   0.71525
 Alpha virt. eigenvalues --    0.71744   0.71878   0.72394   0.72790   0.72957
 Alpha virt. eigenvalues --    0.73294   0.73572   0.73769   0.73972   0.74470
 Alpha virt. eigenvalues --    0.74858   0.75101   0.75176   0.75523   0.75772
 Alpha virt. eigenvalues --    0.76130   0.76246   0.76532   0.76686   0.77083
 Alpha virt. eigenvalues --    0.77612   0.77977   0.78042   0.78363   0.78629
 Alpha virt. eigenvalues --    0.79132   0.79411   0.79452   0.79923   0.80211
 Alpha virt. eigenvalues --    0.80333   0.80706   0.81060   0.81481   0.81636
 Alpha virt. eigenvalues --    0.82020   0.82257   0.82474   0.82718   0.83113
 Alpha virt. eigenvalues --    0.83313   0.83517   0.83816   0.84005   0.84582
 Alpha virt. eigenvalues --    0.84731   0.84765   0.85089   0.85215   0.85324
 Alpha virt. eigenvalues --    0.85680   0.85974   0.86167   0.86303   0.86666
 Alpha virt. eigenvalues --    0.86691   0.87371   0.87421   0.87654   0.87907
 Alpha virt. eigenvalues --    0.88143   0.88612   0.88792   0.88913   0.89223
 Alpha virt. eigenvalues --    0.89502   0.89641   0.90214   0.90330   0.90539
 Alpha virt. eigenvalues --    0.91147   0.91255   0.91583   0.91642   0.91909
 Alpha virt. eigenvalues --    0.92229   0.92496   0.92785   0.93089   0.93419
 Alpha virt. eigenvalues --    0.93565   0.93756   0.94237   0.94527   0.94730
 Alpha virt. eigenvalues --    0.94906   0.95145   0.95181   0.95689   0.95759
 Alpha virt. eigenvalues --    0.95973   0.96232   0.96445   0.96725   0.97368
 Alpha virt. eigenvalues --    0.97615   0.97773   0.98158   0.98355   0.98650
 Alpha virt. eigenvalues --    0.99010   0.99558   0.99650   0.99864   1.00088
 Alpha virt. eigenvalues --    1.00649   1.01204   1.01503   1.01791   1.02022
 Alpha virt. eigenvalues --    1.02228   1.02944   1.03147   1.03683   1.04140
 Alpha virt. eigenvalues --    1.04292   1.04950   1.05208   1.05481   1.05760
 Alpha virt. eigenvalues --    1.06017   1.06739   1.06955   1.07427   1.07506
 Alpha virt. eigenvalues --    1.07833   1.07956   1.08524   1.08809   1.09464
 Alpha virt. eigenvalues --    1.09559   1.09633   1.09886   1.10482   1.10669
 Alpha virt. eigenvalues --    1.11093   1.11191   1.11573   1.11688   1.12233
 Alpha virt. eigenvalues --    1.12554   1.12701   1.13113   1.13503   1.13785
 Alpha virt. eigenvalues --    1.13923   1.14431   1.14767   1.14974   1.15342
 Alpha virt. eigenvalues --    1.15449   1.15848   1.16049   1.16267   1.16560
 Alpha virt. eigenvalues --    1.16909   1.17361   1.17744   1.17835   1.18021
 Alpha virt. eigenvalues --    1.18641   1.18945   1.19287   1.19393   1.19812
 Alpha virt. eigenvalues --    1.20146   1.20439   1.20544   1.20956   1.21407
 Alpha virt. eigenvalues --    1.21747   1.22337   1.22457   1.23023   1.23304
 Alpha virt. eigenvalues --    1.23454   1.23880   1.24537   1.24966   1.25255
 Alpha virt. eigenvalues --    1.25508   1.25995   1.26137   1.26607   1.26900
 Alpha virt. eigenvalues --    1.27215   1.27523   1.27861   1.28121   1.28399
 Alpha virt. eigenvalues --    1.28802   1.28960   1.29259   1.29540   1.29684
 Alpha virt. eigenvalues --    1.30026   1.30290   1.30932   1.31317   1.31711
 Alpha virt. eigenvalues --    1.32112   1.32484   1.32723   1.33528   1.33991
 Alpha virt. eigenvalues --    1.34396   1.34564   1.34858   1.35429   1.35649
 Alpha virt. eigenvalues --    1.36010   1.36395   1.36474   1.36979   1.37193
 Alpha virt. eigenvalues --    1.37550   1.37865   1.38064   1.38283   1.38534
 Alpha virt. eigenvalues --    1.38726   1.39117   1.39581   1.39811   1.39914
 Alpha virt. eigenvalues --    1.40347   1.40739   1.41249   1.41416   1.41964
 Alpha virt. eigenvalues --    1.42043   1.42367   1.42707   1.43132   1.43524
 Alpha virt. eigenvalues --    1.43601   1.43686   1.44135   1.44203   1.44346
 Alpha virt. eigenvalues --    1.44530   1.45099   1.45264   1.45462   1.45820
 Alpha virt. eigenvalues --    1.45868   1.46237   1.46516   1.46668   1.46718
 Alpha virt. eigenvalues --    1.46869   1.47369   1.47475   1.47839   1.48097
 Alpha virt. eigenvalues --    1.48374   1.48767   1.48986   1.49281   1.49547
 Alpha virt. eigenvalues --    1.49762   1.49880   1.50138   1.50435   1.50656
 Alpha virt. eigenvalues --    1.50893   1.51206   1.51500   1.51638   1.51872
 Alpha virt. eigenvalues --    1.52224   1.52453   1.52681   1.53013   1.53122
 Alpha virt. eigenvalues --    1.53262   1.53713   1.54273   1.54447   1.54657
 Alpha virt. eigenvalues --    1.54895   1.55142   1.55525   1.55554   1.55738
 Alpha virt. eigenvalues --    1.56146   1.56219   1.56522   1.56778   1.56971
 Alpha virt. eigenvalues --    1.57352   1.57499   1.57729   1.57859   1.58359
 Alpha virt. eigenvalues --    1.58408   1.58854   1.59169   1.59485   1.59918
 Alpha virt. eigenvalues --    1.60156   1.60320   1.60499   1.61070   1.61415
 Alpha virt. eigenvalues --    1.61746   1.61926   1.62463   1.62590   1.62802
 Alpha virt. eigenvalues --    1.62971   1.63107   1.63374   1.63454   1.64024
 Alpha virt. eigenvalues --    1.64294   1.64823   1.65201   1.65492   1.65721
 Alpha virt. eigenvalues --    1.66003   1.66749   1.67215   1.67375   1.67656
 Alpha virt. eigenvalues --    1.67826   1.68552   1.68713   1.69269   1.69792
 Alpha virt. eigenvalues --    1.70378   1.70488   1.70868   1.70941   1.71401
 Alpha virt. eigenvalues --    1.71819   1.72191   1.72707   1.72900   1.73219
 Alpha virt. eigenvalues --    1.73441   1.73733   1.74285   1.74503   1.74619
 Alpha virt. eigenvalues --    1.75204   1.75356   1.75778   1.76156   1.76382
 Alpha virt. eigenvalues --    1.77021   1.77149   1.77527   1.77584   1.78090
 Alpha virt. eigenvalues --    1.78258   1.78540   1.78706   1.79328   1.79586
 Alpha virt. eigenvalues --    1.79640   1.80424   1.80583   1.80811   1.81518
 Alpha virt. eigenvalues --    1.81752   1.81966   1.82268   1.82671   1.83014
 Alpha virt. eigenvalues --    1.83490   1.83805   1.84223   1.84547   1.85204
 Alpha virt. eigenvalues --    1.85593   1.85667   1.86140   1.86436   1.87023
 Alpha virt. eigenvalues --    1.87325   1.87537   1.87786   1.88112   1.88268
 Alpha virt. eigenvalues --    1.88732   1.88980   1.89100   1.89487   1.89793
 Alpha virt. eigenvalues --    1.90387   1.90714   1.90766   1.91264   1.91512
 Alpha virt. eigenvalues --    1.91994   1.92201   1.92553   1.92987   1.93289
 Alpha virt. eigenvalues --    1.93627   1.93934   1.94014   1.94444   1.94598
 Alpha virt. eigenvalues --    1.94913   1.95533   1.95966   1.96454   1.96613
 Alpha virt. eigenvalues --    1.97084   1.97224   1.97503   1.98271   1.98496
 Alpha virt. eigenvalues --    1.99115   1.99454   1.99800   2.00064   2.00301
 Alpha virt. eigenvalues --    2.00856   2.01035   2.01638   2.01683   2.02303
 Alpha virt. eigenvalues --    2.02493   2.02994   2.03209   2.03625   2.04038
 Alpha virt. eigenvalues --    2.04128   2.04780   2.05006   2.05408   2.05703
 Alpha virt. eigenvalues --    2.05940   2.06438   2.06703   2.06804   2.07574
 Alpha virt. eigenvalues --    2.07717   2.07937   2.08454   2.08601   2.08956
 Alpha virt. eigenvalues --    2.09291   2.09900   2.10498   2.10551   2.10750
 Alpha virt. eigenvalues --    2.11095   2.11401   2.11682   2.11933   2.12193
 Alpha virt. eigenvalues --    2.12660   2.12930   2.13272   2.13516   2.14181
 Alpha virt. eigenvalues --    2.14329   2.15093   2.15310   2.15767   2.15900
 Alpha virt. eigenvalues --    2.16429   2.16665   2.17065   2.17476   2.17644
 Alpha virt. eigenvalues --    2.18055   2.18845   2.19050   2.19456   2.20054
 Alpha virt. eigenvalues --    2.20558   2.20795   2.20887   2.20960   2.21310
 Alpha virt. eigenvalues --    2.21580   2.22182   2.22504   2.22884   2.23419
 Alpha virt. eigenvalues --    2.23802   2.24161   2.24579   2.24826   2.25416
 Alpha virt. eigenvalues --    2.25760   2.25912   2.26299   2.26715   2.27264
 Alpha virt. eigenvalues --    2.27466   2.27621   2.27950   2.28382   2.29107
 Alpha virt. eigenvalues --    2.29185   2.29370   2.29555   2.29959   2.30273
 Alpha virt. eigenvalues --    2.30434   2.30815   2.31055   2.31518   2.31813
 Alpha virt. eigenvalues --    2.32256   2.32509   2.32925   2.32960   2.33219
 Alpha virt. eigenvalues --    2.33527   2.33853   2.33986   2.34351   2.34924
 Alpha virt. eigenvalues --    2.35152   2.35698   2.35911   2.36177   2.36630
 Alpha virt. eigenvalues --    2.36997   2.37670   2.38087   2.38376   2.38560
 Alpha virt. eigenvalues --    2.39020   2.39532   2.40063   2.40494   2.41052
 Alpha virt. eigenvalues --    2.41332   2.41519   2.41712   2.42523   2.42835
 Alpha virt. eigenvalues --    2.42922   2.43122   2.43595   2.43877   2.44064
 Alpha virt. eigenvalues --    2.44908   2.45202   2.45765   2.45923   2.46189
 Alpha virt. eigenvalues --    2.46579   2.46854   2.47141   2.47238   2.47571
 Alpha virt. eigenvalues --    2.48003   2.48196   2.48444   2.48548   2.48862
 Alpha virt. eigenvalues --    2.49076   2.49195   2.49301   2.49762   2.49845
 Alpha virt. eigenvalues --    2.50101   2.50537   2.51343   2.51411   2.51778
 Alpha virt. eigenvalues --    2.51800   2.52236   2.52451   2.52763   2.53000
 Alpha virt. eigenvalues --    2.53366   2.53586   2.54061   2.54407   2.54505
 Alpha virt. eigenvalues --    2.54676   2.54928   2.55447   2.55655   2.56177
 Alpha virt. eigenvalues --    2.56367   2.56522   2.56854   2.57186   2.57344
 Alpha virt. eigenvalues --    2.58118   2.58202   2.58909   2.59104   2.59537
 Alpha virt. eigenvalues --    2.59740   2.60020   2.60203   2.60350   2.60432
 Alpha virt. eigenvalues --    2.60607   2.61053   2.61331   2.61509   2.61836
 Alpha virt. eigenvalues --    2.62210   2.62667   2.63244   2.63543   2.63633
 Alpha virt. eigenvalues --    2.63908   2.64279   2.64583   2.64737   2.65487
 Alpha virt. eigenvalues --    2.65834   2.66157   2.66566   2.66995   2.67192
 Alpha virt. eigenvalues --    2.67491   2.67710   2.68394   2.68613   2.68783
 Alpha virt. eigenvalues --    2.69024   2.69788   2.69909   2.70433   2.70969
 Alpha virt. eigenvalues --    2.71102   2.71344   2.71590   2.72065   2.72655
 Alpha virt. eigenvalues --    2.72898   2.73257   2.73764   2.74055   2.74489
 Alpha virt. eigenvalues --    2.74506   2.75144   2.75308   2.75796   2.76327
 Alpha virt. eigenvalues --    2.76485   2.76766   2.77372   2.77400   2.77584
 Alpha virt. eigenvalues --    2.78104   2.78278   2.78556   2.79088   2.79304
 Alpha virt. eigenvalues --    2.79949   2.80251   2.80655   2.80891   2.81303
 Alpha virt. eigenvalues --    2.81510   2.81740   2.82112   2.82304   2.82339
 Alpha virt. eigenvalues --    2.82796   2.82885   2.83548   2.83928   2.83986
 Alpha virt. eigenvalues --    2.84362   2.84618   2.84860   2.84929   2.85508
 Alpha virt. eigenvalues --    2.85601   2.85656   2.85971   2.86281   2.86556
 Alpha virt. eigenvalues --    2.87189   2.87444   2.87658   2.87962   2.87971
 Alpha virt. eigenvalues --    2.88503   2.88797   2.88899   2.89357   2.89651
 Alpha virt. eigenvalues --    2.89962   2.90248   2.90424   2.90903   2.91104
 Alpha virt. eigenvalues --    2.91519   2.91835   2.92184   2.92382   2.92820
 Alpha virt. eigenvalues --    2.93152   2.93448   2.93807   2.94100   2.94361
 Alpha virt. eigenvalues --    2.94639   2.94971   2.95114   2.95411   2.95636
 Alpha virt. eigenvalues --    2.95762   2.96237   2.96280   2.96611   2.96865
 Alpha virt. eigenvalues --    2.97130   2.97204   2.97771   2.97960   2.98377
 Alpha virt. eigenvalues --    2.98601   2.98697   2.98885   2.98999   2.99568
 Alpha virt. eigenvalues --    2.99789   3.00006   3.00287   3.00564   3.00972
 Alpha virt. eigenvalues --    3.01481   3.01824   3.02088   3.02301   3.02483
 Alpha virt. eigenvalues --    3.02555   3.03007   3.03349   3.03451   3.03717
 Alpha virt. eigenvalues --    3.04030   3.04303   3.04702   3.04884   3.05278
 Alpha virt. eigenvalues --    3.05360   3.05492   3.05905   3.06025   3.06330
 Alpha virt. eigenvalues --    3.06591   3.07089   3.07335   3.07521   3.07706
 Alpha virt. eigenvalues --    3.08002   3.08108   3.08423   3.08774   3.09083
 Alpha virt. eigenvalues --    3.09188   3.09304   3.09603   3.09735   3.10047
 Alpha virt. eigenvalues --    3.10279   3.10437   3.10677   3.11121   3.11385
 Alpha virt. eigenvalues --    3.11462   3.11736   3.11907   3.12336   3.12552
 Alpha virt. eigenvalues --    3.12778   3.13257   3.13441   3.13755   3.13962
 Alpha virt. eigenvalues --    3.14018   3.14414   3.14561   3.14889   3.15102
 Alpha virt. eigenvalues --    3.15189   3.15421   3.15655   3.16151   3.16301
 Alpha virt. eigenvalues --    3.16586   3.16771   3.16924   3.17088   3.17415
 Alpha virt. eigenvalues --    3.17565   3.17812   3.18075   3.18287   3.18553
 Alpha virt. eigenvalues --    3.18832   3.19153   3.19353   3.19633   3.19880
 Alpha virt. eigenvalues --    3.20205   3.20282   3.20481   3.20652   3.21036
 Alpha virt. eigenvalues --    3.21398   3.21690   3.21752   3.22144   3.22380
 Alpha virt. eigenvalues --    3.22641   3.23002   3.23203   3.23343   3.23525
 Alpha virt. eigenvalues --    3.23645   3.23946   3.24454   3.24655   3.24922
 Alpha virt. eigenvalues --    3.25229   3.25402   3.25692   3.26010   3.26225
 Alpha virt. eigenvalues --    3.26476   3.26562   3.26701   3.27091   3.27201
 Alpha virt. eigenvalues --    3.27540   3.27814   3.27956   3.28123   3.28284
 Alpha virt. eigenvalues --    3.28651   3.28949   3.29164   3.29557   3.29725
 Alpha virt. eigenvalues --    3.29857   3.30039   3.30549   3.30768   3.30940
 Alpha virt. eigenvalues --    3.31263   3.31557   3.31757   3.32129   3.32258
 Alpha virt. eigenvalues --    3.32702   3.33076   3.33141   3.33291   3.33480
 Alpha virt. eigenvalues --    3.33818   3.34133   3.34280   3.34582   3.34924
 Alpha virt. eigenvalues --    3.35202   3.35367   3.35545   3.35926   3.36211
 Alpha virt. eigenvalues --    3.36378   3.36839   3.37039   3.37475   3.37584
 Alpha virt. eigenvalues --    3.37933   3.38312   3.38508   3.38944   3.39161
 Alpha virt. eigenvalues --    3.39417   3.39586   3.39746   3.40628   3.40795
 Alpha virt. eigenvalues --    3.41229   3.41539   3.41716   3.41878   3.42148
 Alpha virt. eigenvalues --    3.42271   3.42507   3.42868   3.43314   3.44070
 Alpha virt. eigenvalues --    3.44266   3.44352   3.44540   3.44921   3.45158
 Alpha virt. eigenvalues --    3.45262   3.46048   3.46458   3.46557   3.46914
 Alpha virt. eigenvalues --    3.47131   3.47572   3.47814   3.47954   3.48420
 Alpha virt. eigenvalues --    3.48894   3.49366   3.49538   3.49978   3.50334
 Alpha virt. eigenvalues --    3.50688   3.51098   3.51347   3.51666   3.51875
 Alpha virt. eigenvalues --    3.52089   3.52658   3.52788   3.53330   3.53686
 Alpha virt. eigenvalues --    3.53878   3.54612   3.54640   3.55361   3.55375
 Alpha virt. eigenvalues --    3.55761   3.56056   3.56370   3.56510   3.56911
 Alpha virt. eigenvalues --    3.57446   3.57837   3.58289   3.59001   3.59092
 Alpha virt. eigenvalues --    3.59767   3.60019   3.60198   3.60486   3.60579
 Alpha virt. eigenvalues --    3.61205   3.61564   3.62008   3.62089   3.62683
 Alpha virt. eigenvalues --    3.63193   3.63396   3.63748   3.64080   3.64194
 Alpha virt. eigenvalues --    3.64628   3.64794   3.65140   3.65391   3.65614
 Alpha virt. eigenvalues --    3.65993   3.66149   3.66254   3.66901   3.67039
 Alpha virt. eigenvalues --    3.67408   3.67934   3.68149   3.69066   3.69661
 Alpha virt. eigenvalues --    3.69833   3.70856   3.71611   3.71935   3.72686
 Alpha virt. eigenvalues --    3.73277   3.73636   3.74268   3.75164   3.75273
 Alpha virt. eigenvalues --    3.75448   3.75846   3.76290   3.76627   3.76761
 Alpha virt. eigenvalues --    3.77542   3.78003   3.78352   3.78614   3.78761
 Alpha virt. eigenvalues --    3.79351   3.79856   3.80021   3.80531   3.80859
 Alpha virt. eigenvalues --    3.81317   3.81637   3.82244   3.82537   3.83135
 Alpha virt. eigenvalues --    3.83696   3.83938   3.84313   3.84680   3.85121
 Alpha virt. eigenvalues --    3.85464   3.85793   3.86210   3.86393   3.86667
 Alpha virt. eigenvalues --    3.86705   3.87425   3.88034   3.88303   3.88532
 Alpha virt. eigenvalues --    3.88782   3.89416   3.89875   3.89956   3.90791
 Alpha virt. eigenvalues --    3.91428   3.92168   3.92556   3.93087   3.93407
 Alpha virt. eigenvalues --    3.94259   3.94872   3.95040   3.95367   3.95794
 Alpha virt. eigenvalues --    3.96270   3.96521   3.97923   3.98266   3.99172
 Alpha virt. eigenvalues --    3.99555   4.00306   4.00597   4.01283   4.01609
 Alpha virt. eigenvalues --    4.02132   4.02388   4.02536   4.03091   4.03606
 Alpha virt. eigenvalues --    4.03980   4.04018   4.04639   4.05105   4.05624
 Alpha virt. eigenvalues --    4.06218   4.06616   4.07086   4.08003   4.08528
 Alpha virt. eigenvalues --    4.09130   4.09391   4.09761   4.10360   4.10894
 Alpha virt. eigenvalues --    4.11285   4.11612   4.11946   4.12752   4.13456
 Alpha virt. eigenvalues --    4.13649   4.14206   4.14399   4.14905   4.15456
 Alpha virt. eigenvalues --    4.15743   4.16468   4.16857   4.17433   4.18341
 Alpha virt. eigenvalues --    4.19062   4.19362   4.19741   4.20072   4.20440
 Alpha virt. eigenvalues --    4.20918   4.21482   4.21892   4.22315   4.23168
 Alpha virt. eigenvalues --    4.23306   4.23801   4.24371   4.24832   4.25536
 Alpha virt. eigenvalues --    4.25764   4.26108   4.26653   4.27339   4.27982
 Alpha virt. eigenvalues --    4.28288   4.28339   4.29196   4.29307   4.29445
 Alpha virt. eigenvalues --    4.29945   4.30698   4.31020   4.31686   4.32129
 Alpha virt. eigenvalues --    4.32546   4.33639   4.33815   4.34663   4.35222
 Alpha virt. eigenvalues --    4.35702   4.35841   4.36937   4.37130   4.37559
 Alpha virt. eigenvalues --    4.37823   4.38616   4.39197   4.41038   4.41395
 Alpha virt. eigenvalues --    4.41927   4.42120   4.43004   4.44081   4.44968
 Alpha virt. eigenvalues --    4.45306   4.45640   4.46216   4.46760   4.47496
 Alpha virt. eigenvalues --    4.47721   4.49005   4.49404   4.49788   4.50068
 Alpha virt. eigenvalues --    4.50818   4.50838   4.51374   4.52056   4.52921
 Alpha virt. eigenvalues --    4.53400   4.54102   4.54534   4.55203   4.55996
 Alpha virt. eigenvalues --    4.56345   4.57031   4.57640   4.57972   4.58745
 Alpha virt. eigenvalues --    4.59395   4.60313   4.60923   4.61247   4.61925
 Alpha virt. eigenvalues --    4.62085   4.62731   4.62978   4.63519   4.63686
 Alpha virt. eigenvalues --    4.64745   4.65402   4.66100   4.66230   4.67134
 Alpha virt. eigenvalues --    4.67583   4.68685   4.68975   4.69646   4.69788
 Alpha virt. eigenvalues --    4.70516   4.70894   4.71570   4.71670   4.72548
 Alpha virt. eigenvalues --    4.73423   4.73865   4.74565   4.74941   4.75372
 Alpha virt. eigenvalues --    4.75996   4.76423   4.76788   4.78009   4.78704
 Alpha virt. eigenvalues --    4.79516   4.80333   4.81353   4.81987   4.82220
 Alpha virt. eigenvalues --    4.82790   4.83113   4.83965   4.84120   4.84689
 Alpha virt. eigenvalues --    4.85302   4.86275   4.86953   4.87614   4.87896
 Alpha virt. eigenvalues --    4.88333   4.89326   4.89789   4.91077   4.91851
 Alpha virt. eigenvalues --    4.91950   4.92563   4.92850   4.93787   4.94414
 Alpha virt. eigenvalues --    4.94952   4.95577   4.95954   4.96719   4.97955
 Alpha virt. eigenvalues --    4.98411   4.99402   5.00835   5.01633   5.02169
 Alpha virt. eigenvalues --    5.03080   5.04670   5.05815   5.07282   5.08140
 Alpha virt. eigenvalues --    5.08745   5.09645   5.10527   5.10764   5.11275
 Alpha virt. eigenvalues --    5.11966   5.12693   5.13035   5.13827   5.14360
 Alpha virt. eigenvalues --    5.14538   5.15561   5.15994   5.16357   5.16899
 Alpha virt. eigenvalues --    5.17273   5.17910   5.18231   5.18510   5.20017
 Alpha virt. eigenvalues --    5.20163   5.22144   5.22772   5.22950   5.25613
 Alpha virt. eigenvalues --    5.25790   5.25940   5.26528   5.27374   5.28263
 Alpha virt. eigenvalues --    5.28409   5.29695   5.29889   5.30913   5.31264
 Alpha virt. eigenvalues --    5.31876   5.33072   5.34551   5.34836   5.35693
 Alpha virt. eigenvalues --    5.36905   5.37021   5.37959   5.38570   5.39562
 Alpha virt. eigenvalues --    5.40308   5.40659   5.43560   5.44103   5.45670
 Alpha virt. eigenvalues --    5.46462   5.47546   5.48331   5.48854   5.49941
 Alpha virt. eigenvalues --    5.50246   5.51891   5.52079   5.53070   5.53532
 Alpha virt. eigenvalues --    5.54673   5.55768   5.56657   5.57434   5.59345
 Alpha virt. eigenvalues --    5.59700   5.59722   5.60313   5.60484   5.62471
 Alpha virt. eigenvalues --    5.64229   5.65336   5.69406   5.70082   5.72345
 Alpha virt. eigenvalues --    5.73777   5.75317   5.81742   5.83650   5.84014
 Alpha virt. eigenvalues --    5.85106   5.85768   5.86145   5.88852   5.90777
 Alpha virt. eigenvalues --    5.91237   5.91699   5.92869   5.94086   5.94242
 Alpha virt. eigenvalues --    5.96023   5.97589   5.98726   6.00068   6.00370
 Alpha virt. eigenvalues --    6.03097   6.05191   6.07387   6.07634   6.09918
 Alpha virt. eigenvalues --    6.11051   6.11293   6.15606   6.20248   6.20569
 Alpha virt. eigenvalues --    6.21871   6.25846   6.28849   6.29821   6.32535
 Alpha virt. eigenvalues --    6.33320   6.37674   6.40230   6.41874   6.43777
 Alpha virt. eigenvalues --    6.45902   6.58970   6.60406   6.67917   6.69809
 Alpha virt. eigenvalues --    6.78082   6.79837   6.86404   6.87611   6.90881
 Alpha virt. eigenvalues --    7.01113   7.05861   7.06896   7.11860   7.12609
 Alpha virt. eigenvalues --    7.20027   7.20635  22.20761  22.22357  22.41512
 Alpha virt. eigenvalues --   22.42161  22.42968  22.43375  22.43702  22.46700
 Alpha virt. eigenvalues --   22.51368  22.53746  22.57388  22.59178  22.62437
 Alpha virt. eigenvalues --   22.67506  22.69043  22.73384  22.79480  22.80971
 Alpha virt. eigenvalues --   22.83750  22.85264  22.87989  22.89676  22.91725
 Alpha virt. eigenvalues --   22.96217  22.96948  22.99480  23.15514  23.17645
 Alpha virt. eigenvalues --   23.19269  23.21527  23.24148  23.25855  23.35959
 Alpha virt. eigenvalues --   23.37579  23.40403  23.42652  23.49562  23.51476
 Alpha virt. eigenvalues --   23.55911  23.60542  23.61721  23.69025  32.33311
 Alpha virt. eigenvalues --   32.36445  32.62827  32.73726  32.87763  33.00934
 Alpha virt. eigenvalues --   33.06304  33.29067  43.86947  43.89281  43.90804
 Alpha virt. eigenvalues --   43.91169
  Beta  occ. eigenvalues -- -256.54352 -30.27462 -26.10692 -26.10676 -26.10600
  Beta  occ. eigenvalues --  -19.34014 -19.32295 -19.25275 -19.24937 -14.55814
  Beta  occ. eigenvalues --  -14.55618 -14.50262 -14.50098 -14.47038 -14.47032
  Beta  occ. eigenvalues --  -14.46948 -14.46707 -10.42396 -10.42359 -10.39632
  Beta  occ. eigenvalues --  -10.39278 -10.36506 -10.36421 -10.35698 -10.35431
  Beta  occ. eigenvalues --  -10.35369 -10.35325 -10.35309 -10.35224 -10.35052
  Beta  occ. eigenvalues --  -10.34955 -10.34216 -10.34163 -10.33214 -10.32723
  Beta  occ. eigenvalues --  -10.32704 -10.32516 -10.32192 -10.32185 -10.32163
  Beta  occ. eigenvalues --  -10.32083 -10.32072 -10.32059 -10.32014 -10.31910
  Beta  occ. eigenvalues --  -10.31688 -10.31609 -10.31506 -10.31434 -10.31381
  Beta  occ. eigenvalues --  -10.31081 -10.30672 -10.30491 -10.30453 -10.30291
  Beta  occ. eigenvalues --  -10.30050 -10.30023 -10.29696 -10.29501  -3.56462
  Beta  occ. eigenvalues --   -2.30810  -2.30754  -2.30735  -1.24383  -1.23398
  Beta  occ. eigenvalues --   -1.16207  -1.15936  -1.09977  -1.09844  -1.08377
  Beta  occ. eigenvalues --   -1.07449  -1.07436  -1.06507  -1.01602  -1.01457
  Beta  occ. eigenvalues --   -0.93921  -0.92299  -0.91931  -0.91711  -0.91365
  Beta  occ. eigenvalues --   -0.91168  -0.90988  -0.90701  -0.90627  -0.87777
  Beta  occ. eigenvalues --   -0.87047  -0.86258  -0.85975  -0.85607  -0.83235
  Beta  occ. eigenvalues --   -0.81931  -0.81690  -0.81101  -0.80778  -0.80056
  Beta  occ. eigenvalues --   -0.78689  -0.77662  -0.77128  -0.76061  -0.75859
  Beta  occ. eigenvalues --   -0.75550  -0.75265  -0.74533  -0.72643  -0.72471
  Beta  occ. eigenvalues --   -0.72390  -0.70034  -0.69181  -0.69045  -0.69017
  Beta  occ. eigenvalues --   -0.66567  -0.66320  -0.65247  -0.64415  -0.63794
  Beta  occ. eigenvalues --   -0.63195  -0.62520  -0.62139  -0.61553  -0.60414
  Beta  occ. eigenvalues --   -0.60325  -0.59060  -0.58554  -0.58493  -0.58405
  Beta  occ. eigenvalues --   -0.58163  -0.57741  -0.57665  -0.57530  -0.57419
  Beta  occ. eigenvalues --   -0.56494  -0.56177  -0.55728  -0.55084  -0.54710
  Beta  occ. eigenvalues --   -0.54500  -0.54297  -0.54023  -0.53761  -0.53564
  Beta  occ. eigenvalues --   -0.53485  -0.53194  -0.53151  -0.52941  -0.52761
  Beta  occ. eigenvalues --   -0.52632  -0.52400  -0.52233  -0.52063  -0.51978
  Beta  occ. eigenvalues --   -0.51577  -0.51530  -0.51425  -0.51026  -0.50898
  Beta  occ. eigenvalues --   -0.50450  -0.50178  -0.50023  -0.49809  -0.49601
  Beta  occ. eigenvalues --   -0.49216  -0.48709  -0.48623  -0.48249  -0.48118
  Beta  occ. eigenvalues --   -0.47553  -0.47437  -0.47277  -0.46702  -0.46539
  Beta  occ. eigenvalues --   -0.46244  -0.46045  -0.45720  -0.45274  -0.45027
  Beta  occ. eigenvalues --   -0.44594  -0.44006  -0.43884  -0.43186  -0.42965
  Beta  occ. eigenvalues --   -0.42599  -0.42423  -0.41865  -0.41450  -0.40600
  Beta  occ. eigenvalues --   -0.40379  -0.39834  -0.39353  -0.39013  -0.38783
  Beta  occ. eigenvalues --   -0.37615  -0.36842  -0.34882  -0.34816  -0.34491
  Beta  occ. eigenvalues --   -0.34286  -0.33266  -0.32973  -0.32248  -0.31936
  Beta  occ. eigenvalues --   -0.29838  -0.29273
  Beta virt. eigenvalues --   -0.19652  -0.19496  -0.17747  -0.16442  -0.16213
  Beta virt. eigenvalues --   -0.12037  -0.11339  -0.10518  -0.09304  -0.09022
  Beta virt. eigenvalues --   -0.08281  -0.08213  -0.07842  -0.07509  -0.06664
  Beta virt. eigenvalues --   -0.05931  -0.05862  -0.05568  -0.05023  -0.04781
  Beta virt. eigenvalues --   -0.04453  -0.03849  -0.03785  -0.02911  -0.02514
  Beta virt. eigenvalues --   -0.02295  -0.02023  -0.01845  -0.01588  -0.01414
  Beta virt. eigenvalues --   -0.01006  -0.00586  -0.00417   0.00026   0.00507
  Beta virt. eigenvalues --    0.00655   0.00810   0.01072   0.01270   0.01533
  Beta virt. eigenvalues --    0.01863   0.02328   0.02790   0.02917   0.03118
  Beta virt. eigenvalues --    0.03252   0.03526   0.03539   0.03670   0.03809
  Beta virt. eigenvalues --    0.04070   0.04413   0.04529   0.04817   0.05046
  Beta virt. eigenvalues --    0.05215   0.05324   0.05684   0.05838   0.06093
  Beta virt. eigenvalues --    0.06138   0.06153   0.06283   0.06442   0.06745
  Beta virt. eigenvalues --    0.06889   0.07022   0.07203   0.07358   0.07563
  Beta virt. eigenvalues --    0.07680   0.08003   0.08535   0.08653   0.08767
  Beta virt. eigenvalues --    0.08901   0.09035   0.09293   0.09394   0.09542
  Beta virt. eigenvalues --    0.09951   0.10115   0.10311   0.10778   0.11077
  Beta virt. eigenvalues --    0.11638   0.11706   0.11857   0.12133   0.12328
  Beta virt. eigenvalues --    0.12466   0.12553   0.12753   0.13156   0.13240
  Beta virt. eigenvalues --    0.13437   0.13648   0.13951   0.14023   0.14103
  Beta virt. eigenvalues --    0.14282   0.14598   0.14709   0.14942   0.15193
  Beta virt. eigenvalues --    0.15278   0.15590   0.15667   0.15907   0.15949
  Beta virt. eigenvalues --    0.16394   0.16442   0.16769   0.16879   0.17016
  Beta virt. eigenvalues --    0.17477   0.17557   0.17650   0.17973   0.18203
  Beta virt. eigenvalues --    0.18538   0.18649   0.18810   0.18969   0.19019
  Beta virt. eigenvalues --    0.19362   0.19560   0.19670   0.19875   0.19897
  Beta virt. eigenvalues --    0.20196   0.20504   0.20832   0.21112   0.21182
  Beta virt. eigenvalues --    0.21373   0.21601   0.21765   0.21955   0.22207
  Beta virt. eigenvalues --    0.22405   0.22722   0.22911   0.23211   0.23476
  Beta virt. eigenvalues --    0.23579   0.23688   0.23914   0.24010   0.24486
  Beta virt. eigenvalues --    0.24710   0.25109   0.25285   0.25334   0.25589
  Beta virt. eigenvalues --    0.25654   0.25890   0.26359   0.26428   0.26626
  Beta virt. eigenvalues --    0.26769   0.26941   0.27294   0.27575   0.27870
  Beta virt. eigenvalues --    0.27918   0.28077   0.28399   0.28596   0.28736
  Beta virt. eigenvalues --    0.28974   0.29097   0.29332   0.29750   0.29875
  Beta virt. eigenvalues --    0.29982   0.30003   0.30199   0.30332   0.30621
  Beta virt. eigenvalues --    0.30743   0.31054   0.31254   0.31326   0.31422
  Beta virt. eigenvalues --    0.31696   0.31795   0.32221   0.32277   0.32417
  Beta virt. eigenvalues --    0.32721   0.32800   0.32843   0.32960   0.33367
  Beta virt. eigenvalues --    0.33421   0.33531   0.33836   0.34115   0.34294
  Beta virt. eigenvalues --    0.34455   0.34658   0.34698   0.34797   0.35125
  Beta virt. eigenvalues --    0.35231   0.35524   0.35602   0.35781   0.36226
  Beta virt. eigenvalues --    0.36309   0.36402   0.36602   0.36681   0.36817
  Beta virt. eigenvalues --    0.36984   0.37126   0.37202   0.37433   0.37613
  Beta virt. eigenvalues --    0.38007   0.38145   0.38278   0.38344   0.38547
  Beta virt. eigenvalues --    0.38712   0.38797   0.39095   0.39311   0.39453
  Beta virt. eigenvalues --    0.39507   0.39878   0.39933   0.40199   0.40300
  Beta virt. eigenvalues --    0.40570   0.40690   0.40763   0.40965   0.41012
  Beta virt. eigenvalues --    0.41247   0.41404   0.41523   0.41612   0.41767
  Beta virt. eigenvalues --    0.42086   0.42297   0.42413   0.42439   0.42572
  Beta virt. eigenvalues --    0.42798   0.43074   0.43121   0.43522   0.43650
  Beta virt. eigenvalues --    0.44066   0.44163   0.44277   0.44434   0.44570
  Beta virt. eigenvalues --    0.44863   0.45118   0.45257   0.45437   0.45797
  Beta virt. eigenvalues --    0.45893   0.45964   0.46250   0.46341   0.46685
  Beta virt. eigenvalues --    0.46844   0.47019   0.47240   0.47539   0.47827
  Beta virt. eigenvalues --    0.48079   0.48265   0.48495   0.48545   0.48844
  Beta virt. eigenvalues --    0.48938   0.49101   0.49261   0.49354   0.49547
  Beta virt. eigenvalues --    0.49829   0.50125   0.50443   0.50549   0.50613
  Beta virt. eigenvalues --    0.50772   0.50972   0.51348   0.51614   0.51979
  Beta virt. eigenvalues --    0.52098   0.52339   0.52545   0.53062   0.53184
  Beta virt. eigenvalues --    0.53250   0.53423   0.53701   0.54025   0.54303
  Beta virt. eigenvalues --    0.54469   0.54565   0.54831   0.54858   0.55145
  Beta virt. eigenvalues --    0.55522   0.55940   0.56029   0.56306   0.56593
  Beta virt. eigenvalues --    0.56752   0.57188   0.57440   0.57727   0.58133
  Beta virt. eigenvalues --    0.58262   0.58532   0.58852   0.59058   0.59199
  Beta virt. eigenvalues --    0.59504   0.59569   0.59982   0.60379   0.60536
  Beta virt. eigenvalues --    0.60803   0.61081   0.61319   0.61510   0.61809
  Beta virt. eigenvalues --    0.62066   0.62177   0.62386   0.62721   0.62965
  Beta virt. eigenvalues --    0.63123   0.63580   0.63946   0.64147   0.64509
  Beta virt. eigenvalues --    0.64910   0.65118   0.65598   0.65832   0.66209
  Beta virt. eigenvalues --    0.66259   0.66411   0.66857   0.67172   0.67296
  Beta virt. eigenvalues --    0.67591   0.67644   0.68043   0.68374   0.68815
  Beta virt. eigenvalues --    0.69003   0.69116   0.69297   0.69583   0.70070
  Beta virt. eigenvalues --    0.70200   0.70611   0.71085   0.71338   0.71622
[...]
  1714. RY*(   5) H  71                  0.00000     3.14860   
  1715. RY*(   1) H  72                  0.00032     1.05592   
  1716. RY*(   2) H  72                  0.00008     1.68937   
  1717. RY*(   3) H  72                  0.00002     1.88874   
  1718. RY*(   4) H  72                  0.00003     2.03777   
  1719. RY*(   5) H  72                  0.00000     2.83574   
  1720. RY*(   1) H  73                  0.00017     1.27060   
  1721. RY*(   2) H  73                  0.00008     1.78700   
  1722. RY*(   3) H  73                  0.00004     2.01389   
  1723. RY*(   4) H  73                  0.00001     2.02336   
  1724. RY*(   5) H  73                  0.00000     2.53795   
  1725. RY*(   1) H  74                  0.00034     1.03888   
  1726. RY*(   2) H  74                  0.00008     1.67635   
  1727. RY*(   3) H  74                  0.00003     2.04586   
  1728. RY*(   4) H  74                  0.00002     1.96268   
  1729. RY*(   5) H  74                  0.00000     2.80228   
  1730. RY*(   1) H  75                  0.00034     1.64580   
  1731. RY*(   2) H  75                  0.00008     2.52549   
  1732. RY*(   3) H  75                  0.00006     2.37730   
  1733. RY*(   4) H  75                  0.00004     1.50611   
  1734. RY*(   5) H  75                  0.00000     2.73158   
  1735. RY*(   1) H  76                  0.00037     1.71395   
  1736. RY*(   2) H  76                  0.00007     2.62469   
  1737. RY*(   3) H  76                  0.00006     2.33561   
  1738. RY*(   4) H  76                  0.00003     1.08983   
  1739. RY*(   5) H  76                  0.00001     3.09407   
  1740. RY*(   1) H  77                  0.00034     1.27820   
  1741. RY*(   2) H  77                  0.00007     2.02941   
  1742. RY*(   3) H  77                  0.00004     1.85905   
  1743. RY*(   4) H  77                  0.00004     2.05019   
  1744. RY*(   5) H  77                  0.00000     2.93422   
  1745. RY*(   1) H  78                  0.00034     1.27019   
  1746. RY*(   2) H  78                  0.00007     1.93359   
  1747. RY*(   3) H  78                  0.00005     2.17190   
  1748. RY*(   4) H  78                  0.00005     2.21440   
  1749. RY*(   5) H  78                  0.00001     3.00371   
  1750. RY*(   1) H  79                  0.00031     0.85899   
  1751. RY*(   2) H  79                  0.00010     1.69433   
  1752. RY*(   3) H  79                  0.00005     2.20632   
  1753. RY*(   4) H  79                  0.00003     2.32425   
  1754. RY*(   5) H  79                  0.00001     2.93499   
  1755. RY*(   1) H  80                  0.00035     1.26027   
  1756. RY*(   2) H  80                  0.00008     1.35642   
  1757. RY*(   3) H  80                  0.00005     2.21312   
  1758. RY*(   4) H  80                  0.00004     2.34474   
  1759. RY*(   5) H  80                  0.00000     2.98256   
  1760. RY*(   1) H  81                  0.00031     0.94296   
  1761. RY*(   2) H  81                  0.00010     1.58505   
  1762. RY*(   3) H  81                  0.00006     2.10704   
  1763. RY*(   4) H  81                  0.00002     2.64222   
  1764. RY*(   5) H  81                  0.00002     2.63878   
  1765. RY*(   1) H  82                  0.00061     1.14092   
  1766. RY*(   2) H  82                  0.00012     1.49484   
  1767. RY*(   3) H  82                  0.00006     2.00736   
  1768. RY*(   4) H  82                  0.00003     2.36981   
  1769. RY*(   5) H  82                  0.00001     2.88742   
  1770. RY*(   1) H  83                  0.00024     1.23368   
  1771. RY*(   2) H  83                  0.00012     1.14573   
  1772. RY*(   3) H  83                  0.00007     2.06911   
  1773. RY*(   4) H  83                  0.00002     2.39997   
  1774. RY*(   5) H  83                  0.00000     2.98835   
  1775. RY*(   1) H  84                  0.00038     0.92593   
  1776. RY*(   2) H  84                  0.00009     1.52029   
  1777. RY*(   3) H  84                  0.00006     2.16277   
  1778. RY*(   4) H  84                  0.00002     2.69232   
  1779. RY*(   5) H  84                  0.00002     2.60454   
  1780. RY*(   1) H  85                  0.00037     1.05781   
  1781. RY*(   2) H  85                  0.00010     1.46708   
  1782. RY*(   3) H  85                  0.00005     2.25687   
  1783. RY*(   4) H  85                  0.00003     2.34075   
  1784. RY*(   5) H  85                  0.00000     2.93426   
  1785. RY*(   1) H  86                  0.00024     1.09280   
  1786. RY*(   2) H  86                  0.00009     1.54436   
  1787. RY*(   3) H  86                  0.00003     2.36721   
  1788. RY*(   4) H  86                  0.00004     2.15837   
  1789. RY*(   5) H  86                  0.00000     2.92771   
  1790. RY*(   1) H  87                  0.00033     1.02480   
  1791. RY*(   2) H  87                  0.00013     1.52189   
  1792. RY*(   3) H  87                  0.00008     2.08094   
  1793. RY*(   4) H  87                  0.00003     2.34174   
  1794. RY*(   5) H  87                  0.00001     2.98087   
  1795. RY*(   1) H  88                  0.00023     1.40012   
  1796. RY*(   2) H  88                  0.00014     0.99148   
  1797. RY*(   3) H  88                  0.00007     2.04893   
  1798. RY*(   4) H  88                  0.00003     2.41148   
  1799. RY*(   5) H  88                  0.00000     2.97785   
  1800. RY*(   1) H  89                  0.00037     0.97546   
  1801. RY*(   2) H  89                  0.00010     1.55206   
  1802. RY*(   3) H  89                  0.00005     2.14719   
  1803. RY*(   4) H  89                  0.00003     2.33201   
  1804. RY*(   5) H  89                  0.00001     2.94600   
  1805. RY*(   1) H  90                  0.00032     0.99066   
  1806. RY*(   2) H  90                  0.00010     1.65888   
  1807. RY*(   3) H  90                  0.00003     2.38212   
  1808. RY*(   4) H  90                  0.00004     2.16207   
  1809. RY*(   5) H  90                  0.00001     2.91468   
  1810. RY*(   1) H  91                  0.00020     1.25335   
  1811. RY*(   2) H  91                  0.00008     1.53467   
  1812. RY*(   3) H  91                  0.00005     2.41554   
  1813. RY*(   4) H  91                  0.00004     2.01310   
  1814. RY*(   5) H  91                  0.00001     2.93532   
  1815. RY*(   1) H  92                  0.00050     0.74201   
  1816. RY*(   2) H  92                  0.00013     2.26253   
  1817. RY*(   3) H  92                  0.00004     2.39497   
  1818. RY*(   4) H  92                  0.00005     2.28566   
  1819. RY*(   5) H  92                  0.00000     3.03860   
  1820. RY*(   1) H  93                  0.00046     1.60886   
  1821. RY*(   2) H  93                  0.00008     2.24873   
  1822. RY*(   3) H  93                  0.00006     2.39658   
  1823. RY*(   4) H  93                  0.00004     1.62221   
  1824. RY*(   5) H  93                  0.00000     2.74086   
  1825. RY*(   1) H  94                  0.00033     1.06810   
  1826. RY*(   2) H  94                  0.00008     1.65267   
  1827. RY*(   3) H  94                  0.00006     2.25618   
  1828. RY*(   4) H  94                  0.00004     2.35560   
  1829. RY*(   5) H  94                  0.00001     3.01758   
  1830. RY*(   1) H  95                  0.00053     0.87084   
  1831. RY*(   2) H  95                  0.00006     1.70647   
  1832. RY*(   3) H  95                  0.00007     2.32220   
  1833. RY*(   4) H  95                  0.00003     2.32164   
  1834. RY*(   5) H  95                  0.00001     2.83214   
  1845. RY*(   1) H  98                  0.00040     1.15407   
  1846. RY*(   2) H  98                  0.00037     1.81081   
  1847. RY*(   3) H  98                  0.00019     1.94745   
  1848. RY*(   4) H  98                  0.00011     1.81889   
  1849. RY*(   5) H  98                  0.00000     3.22058   
  1850. RY*(   1) H  99                  0.00043    -1.16960   
  1851. RY*(   2) H  99                  0.00033    -3.33544   
  1852. RY*(   3) H  99                  0.00021     1.41885   
  1853. RY*(   4) H  99                  0.00013     1.31821   
  1854. RY*(   5) H  99                  0.00000     2.28870   
  1883. BD*(   1) C  23 - C  27          0.00992     0.45403   
  1884. BD*(   1) C  23 - C  54          0.01002     0.45361   
  1885. BD*(   1) C  23 - H  71          0.00605     0.34184   
  1886. BD*(   1) C  24 - C  30          0.00972     0.44942   
  1887. BD*(   2) C  24 - C  30          0.20354    -0.06036  1922(v),1902(v),1900(v)
                                                    596(g),753(g)
  1888. BD*(   1) C  24 - C  37          0.00949     0.45603   
  1889. BD*(   1) C  24 - H  66          0.00599     0.34399   
  1890. BD*(   1) C  25 - C  40          0.00953     0.46960   
  1891. BD*(   2) C  25 - C  40          0.19315    -0.05238  1939(v),1924(v),1922(v)
                                                    621(g),1013(g)
  1892. BD*(   1) C  25 - C  44          0.00973     0.45967   
  1893. BD*(   1) C  25 - H  67          0.00570     0.33826   
  1894. BD*(   1) C  26 - C  47          0.00965     0.43638   
  1895. BD*(   2) C  26 - C  47          0.21090    -0.06731  1956(v),1939(v),1941(v)
                                                    647(g),1882(r)
  1896. BD*(   1) C  26 - C  51          0.00980     0.43585   
  1897. BD*(   1) C  26 - H  68          0.00575     0.34158   
  1898. BD*(   1) C  27 - C  28          0.01730     0.40017   
  1899. BD*(   1) C  27 - N  61          0.01364     0.41875   
  1900. BD*(   2) C  27 - N  61          0.31771    -0.08891  1887(v),1902(v),674(g)
                                                    206(v),570(v),204(v),1555(g)
                                                    1557(g)
  1901. BD*(   1) C  28 - C  29          0.01057     0.48154   
  1902. BD*(   2) C  28 - C  29          0.11873    -0.02738  1887(v),1900(v),1909(v)
                                                    1910(v),1907(v),1911(v)
  1903. BD*(   1) C  28 - C  32          0.01116     0.32317   
  1904. BD*(   1) C  29 - C  30          0.01710     0.38685   
  1905. BD*(   1) C  29 - C  31          0.00805     0.30426   
  1906. BD*(   1) C  30 - N  61          0.01382     0.38996   
  1907. BD*(   1) C  31 - H  72          0.00380     0.30763   
  1908. BD*(   1) C  31 - H  73          0.00250     0.31280   
  1909. BD*(   1) C  31 - H  74          0.00415     0.30432   
  1910. BD*(   1) C  32 - C  33          0.00663     0.27806   
  1911. BD*(   1) C  32 - H  75          0.00811     0.31374   
  1912. BD*(   1) C  32 - H  76          0.00613     0.32207   
  1913. BD*(   1) C  33 - C  34          0.04150     0.26941   
  1914. BD*(   1) C  33 - H  77          0.00627     0.30372   
  1915. BD*(   1) C  33 - H  78          0.00702     0.29762   
  1916. BD*(   1) C  34 - O  35          0.02181     0.47136   
  1917. BD*(   2) C  34 - O  35          0.08599    -0.06271   
  1918. BD*(   1) C  34 - O  36          0.03434     0.42900   
  1919. BD*(   1) O  36 - H  99          0.00666     0.31569   
  1920. BD*(   1) C  37 - C  38          0.01690     0.39551   
  1921. BD*(   1) C  37 - N  62          0.01394     0.38497   
  1922. BD*(   2) C  37 - N  62          0.32553    -0.09677  1887(v),1891(v),1924(v)
                                                    204(v),933(g),206(v),596(v)
                                                    1581(g),1956(r),1583(g)
                                                    1879(r),1865(r)
  1923. BD*(   1) C  38 - C  39          0.01078     0.49576   
  1924. BD*(   2) C  38 - C  39          0.12900    -0.02836  1933(v),1891(v),1922(v)
                                                    1931(v),1929(v)
  1925. BD*(   1) C  38 - C  41          0.00748     0.31109   
  1926. BD*(   1) C  39 - C  40          0.01654     0.41118   
  1927. BD*(   1) C  39 - C  42          0.01411     0.33346   
  1928. BD*(   1) C  40 - N  62          0.01368     0.41392   
  1929. BD*(   1) C  41 - H  79          0.00465     0.30779   
  1930. BD*(   1) C  41 - H  80          0.00357     0.32207   
  1931. BD*(   1) C  41 - H  81          0.00455     0.30625   
  1932. BD*(   1) C  42 - C  43          0.00248     0.51439   
  1933. BD*(   2) C  42 - C  43          0.02662    -0.02179   
  1934. BD*(   1) C  42 - H  69          0.00897     0.35565   
  1935. BD*(   1) C  43 - H  82          0.00409     0.35649   
  1936. BD*(   1) C  43 - H  83          0.00456     0.35941   
  1937. BD*(   1) C  44 - C  45          0.01700     0.39973   
  1938. BD*(   1) C  44 - N  63          0.01375     0.39472   
  1939. BD*(   2) C  44 - N  63          0.32443    -0.09650  1891(v),1895(v),1941(v)
                                                    205(v),1115(g),1607(g)
                                                    621(v),1865(r),1878(r)
                                                    1879(r)
  1940. BD*(   1) C  45 - C  46          0.01106     0.49092   
  1941. BD*(   2) C  45 - C  46          0.13334    -0.03261  1950(v),1895(v),1939(v)
                                                    1946(v)
  1942. BD*(   1) C  45 - C  48          0.00754     0.31485   
  1943. BD*(   1) C  46 - C  47          0.01595     0.40063   
  1944. BD*(   1) C  46 - C  49          0.01403     0.32885   
  1945. BD*(   1) C  47 - N  63          0.01405     0.39165   
  1946. BD*(   1) C  48 - H  84          0.00515     0.29964   
  1947. BD*(   1) C  48 - H  85          0.00368     0.31002   
  1948. BD*(   1) C  48 - H  86          0.00387     0.31053   
  1949. BD*(   1) C  49 - C  50          0.00253     0.50305   
  1950. BD*(   2) C  49 - C  50          0.02385    -0.03139   
  1951. BD*(   1) C  49 - H  70          0.00888     0.35288   
  1952. BD*(   1) C  50 - H  87          0.00474     0.34981   
  1953. BD*(   1) C  50 - H  88          0.00379     0.35653   
  1954. BD*(   1) C  51 - C  52          0.01726     0.38424   
  1955. BD*(   1) C  51 - N  64          0.01325     0.40711   
  1956. BD*(   2) C  51 - N  64          0.32013    -0.09438  1895(v),1958(v),198(v)
                                                    204(v),1297(g),205(v)
                                                    1633(g),1922(r),647(v)
                                                    1879(r),1865(r),1868(r)
  1957. BD*(   1) C  52 - C  53          0.01078     0.47000   
  1958. BD*(   2) C  52 - C  53          0.12195    -0.03355  1956(v),198(v),1963(v)
                                                    1968(v),1966(v),1964(v)
  1959. BD*(   1) C  52 - C  55          0.00811     0.30283   
  1960. BD*(   1) C  53 - C  54          0.01600     0.39131   
  1961. BD*(   1) C  53 - C  56          0.01146     0.30113   
  1962. BD*(   1) C  54 - N  64          0.01300     0.41746   
  1963. BD*(   1) C  55 - H  89          0.00478     0.29630   
  1964. BD*(   1) C  55 - H  90          0.00335     0.30408   
  1965. BD*(   1) C  55 - H  91          0.00338     0.31001   
  1966. BD*(   1) C  56 - C  57          0.00621     0.26348   
  1967. BD*(   1) C  56 - H  92          0.00623     0.29486   
  1968. BD*(   1) C  56 - H  93          0.00941     0.30293   
  1969. BD*(   1) C  57 - C  58          0.03900     0.26462   
  1970. BD*(   1) C  57 - H  94          0.00685     0.30810   
  1971. BD*(   1) C  57 - H  95          0.00765     0.28385   
  1972. BD*(   1) C  58 - O  59          0.03692     0.42412   
  1973. BD*(   1) C  58 - O  60          0.03389     0.41333   
  1974. BD*(   2) C  58 - O  60          0.08930    -0.00867   
  1975. BD*(   1) O  59 - H  98          0.00678    -5.72414   
  1976. BD*(   1) N  61 -Fe  65          0.03762    -1.22942   
  1977. BD*(   1) N  62 -Fe  65          0.03825     4.84671   
  1978. BD*(   1) N  63 -Fe  65          0.03977     4.61041   
  1979. BD*(   1) N  64 -Fe  65          0.03992     2.80643   
       -------------------------------
              Total Lewis  153.88779  ( 97.1133%)
        Valence non-Lewis    4.27628  (  2.6986%)
        Rydberg non-Lewis    0.29801  (  0.1881%)
       -------------------------------
            Total unit  3  158.46208  (100.0000%)
           Charge unit  3    2.53792
 1\1\GINC-NODE536\SP\UPBE1PBE\def2TZVP\C42H44Fe1N8O4(1+,6)\ZHARTOVSKA\0
 8-Feb-2023\0\\# PBE1PBE/def2TZVP scf=maxcycle=999 empiricaldispersion=
 GD3BJ int=(grid=ultrafine) geom=check pop=nbo\\1aw3_III_H\\1,6\C,0,4.4
 28,9.754,1.996\C,0,3.012,9.72,2.522\N,0,2.674,9.452,3.824\C,0,1.843,9.
 805,1.81\C,0,1.338,9.387,3.894\N,0,0.779,9.575,2.689\H,0,4.58961716,8.
 91469111,1.35230716\H,0,5.11416854,9.71198695,2.81594368\H,0,3.321,9.2
 86,4.585\H,0,1.751,9.989,0.755\H,0,0.806,9.184,4.805\C,0,-6.248,10.013
 ,0.126\C,0,-5.16,9.694,1.112\N,0,-5.297,8.979,2.278\C,0,-3.834,9.989,0
 .948\C,0,-4.062,8.858,2.802\N,0,-3.129,9.446,2.021\H,0,-6.88794025,9.1
 6286096,0.01357186\H,0,-5.81161942,10.25847869,-0.81962794\H,0,-6.156,
 8.576,2.649\H,0,-3.408,10.531,0.12\H,0,-3.877,8.333,3.724\C,0,-1.333,1
 2.913,2.873\C,0,-0.466,10.195,-1.128\C,0,-1.143,6.149,1.56\C,0,-1.72,8
 .874,5.632\C,0,-1.123,12.495,1.558\C,0,-1.063,13.397,0.434\C,0,-0.748,
 12.656,-0.682\C,0,-0.715,11.269,-0.274\C,0,-0.515,13.218,-2.067\C,0,-1
 .36,14.878,0.473\C,0,-2.786,15.185,0.941\C,0,-3.153,16.658001,0.83\O,0
 ,-2.5,17.358999,0.027\O,0,-4.098,17.055,1.544\C,0,-0.534,8.873,-0.708\
 C,0,-0.314,7.74,-1.577\C,0,-0.563,6.629,-0.812\C,0,-0.863,7.033,0.532\
 C,0,0.108,7.775,-3.026\C,0,-0.44,5.191,-1.257\C,0,-0.981,4.782,-2.415\
 C,0,-1.347,6.551,2.877\C,0,-1.673,5.652,3.954\C,0,-1.699,6.409,5.097\C
 ,0,-1.571,7.799,4.746\C,0,-1.997,4.189,3.838\C,0,-2.042,5.893,6.476\C,
 0,-1.558,4.719,6.939\C,0,-1.672,10.215,5.225\C,0,-1.869,11.355,6.093\C
 ,0,-1.72,12.494,5.327\C,0,-1.482,12.058,3.967\C,0,-2.221,11.305,7.561\
 C,0,-1.929,13.933,5.773\C,0,-1.24,14.359,7.076\C,0,-1.561,15.812,7.393
 \O,0,-0.742,16.674,7.011\O,0,-2.63,16.031,8.002\N,0,-0.975,11.234,1.07
 7\N,0,-0.821,8.393,0.554\N,0,-1.332,7.823,3.394\N,0,-1.461,10.7,3.968\
 Fe,0,-1.148,9.534,2.257\H,0,-0.257,10.379,-2.168\H,0,-1.196,5.104,1.30
 6\H,0,-1.899,8.65,6.671\H,0,-0.18,4.44,-0.536\H,0,-2.635,6.508,7.131\H
 ,0,-1.347,13.973,3.044\H,0,0.244,13.998,-2.019\H,0,-0.176,12.464,-2.77
 4\H,0,-1.442,13.654,-2.439\H,0,-0.665,15.381,1.137\H,0,-1.23,15.299,-0
 .524\H,0,-3.456,14.608,0.324\H,0,-2.954,14.883,1.971\H,0,0.921,8.486,-
 3.162\H,0,0.467,6.797,-3.34\H,0,-0.741,8.059,-3.645\H,0,-1.84,5.341,-2
 .723\H,0,-0.882,3.752,-2.724\H,0,-1.096,3.595,3.995\H,0,-2.746,3.95,4.
 592\H,0,-2.42,3.965,2.862\H,0,-0.823,4.169,6.371\H,0,-1.719,4.449,7.97
 2\H,0,-1.321,11.466,8.155\H,0,-2.959,12.076,7.784\H,0,-2.658,10.349,7.
 838\H,0,-1.535,14.623,5.031\H,0,-3.002,14.12,5.836\H,0,-1.564,13.767,7
 .925\H,0,-0.163,14.253,6.971\H,0,-6.81922222,10.84482526,0.48190999\H,
 0,4.58299214,10.65939995,1.44724835\H,0,0.20042932,16.50684755,7.08507
 452\H,0,-3.91740197,17.5131862,2.36804476\\Version=ES64L-G16RevA.03\St
 ate=6-A\HF=-3627.4989357\S2=8.757327\S2-1=0.\S2A=8.750017\RMSD=7.020e-
 09\Dipole=1.2006394,-2.9904798,0.5347586\Quadrupole=22.6567579,-16.776
 6993,-5.8800586,16.0548891,16.8057612,3.0715203\PG=C01 [X(C42H44Fe1N8O
 4)]\\@


 WE HAVE LEARNED THAT NOTHING IS SIMPLE AND
 RATIONAL EXCEPT WHAT WE OURSELVES HAVE INVENTED;
 THAT GOD THINKS IN TERMS NEITHER OF EUCLID OR RIEMANN; THAT SCIENCE HAS "EXPLAINED" NOTHING;
 THAT THE MORE WE KNOW THE MORE FANTASTIC THE WORLD BECOMES
 AND THE PROFOUNDER THE SURROUNDING DARKNESS.
   --  ALDOUS HUXLEY
 Job cpu time:       2 days 14 hours 46 minutes  0.5 seconds.
 Elapsed time:       0 days 15 hours 43 minutes 51.5 seconds.
 File lengths (MBytes):  RWF=   3611 Int=      0 D2E=      0 Chk=    302 Scr=      1
 Normal termination of Gaussian 16 at Wed Feb  8 10:54:58 2023.
