 Initial command:
 /afs/math/software/gaussian/g16.A03/g16/l1.exe "/scratch/zhartovska_gaussian.gFppSes/Gau-15172.inp" -scrdir="/scratch/zhartovska_gaussian.gFppSes/"
 Entering Link 1 = /afs/math/software/gaussian/g16.A03/g16/l1.exe PID=      3821.
  
 Copyright (c) 1988,1990,1992,1993,1995,1998,2003,2009,2016,
            Gaussian, Inc.  All Rights Reserved.
  
 This is part of the Gaussian(R) 16 program.  It is based on
 the Gaussian(R) 09 system (copyright 2009, Gaussian, Inc.),
 the Gaussian(R) 03 system (copyright 2003, Gaussian, Inc.),
 the Gaussian(R) 98 system (copyright 1998, Gaussian, Inc.),
 the Gaussian(R) 94 system (copyright 1995, Gaussian, Inc.),
 the Gaussian 92(TM) system (copyright 1992, Gaussian, Inc.),
 the Gaussian 90(TM) system (copyright 1990, Gaussian, Inc.),
 the Gaussian 88(TM) system (copyright 1988, Gaussian, Inc.),
 the Gaussian 86(TM) system (copyright 1986, Carnegie Mellon
 University), and the Gaussian 82(TM) system (copyright 1983,
 Carnegie Mellon University). Gaussian is a federally registered
 trademark of Gaussian, Inc.
  
 This software contains proprietary and confidential information,
 including trade secrets, belonging to Gaussian, Inc.
  
 This software is provided under written license and may be
 used, copied, transmitted, or stored only in accord with that
 written license.
  
 The following legend is applicable only to US Government
 contracts under FAR:
  
                    RESTRICTED RIGHTS LEGEND
  
 Use, reproduction and disclosure by the US Government is
 subject to restrictions as set forth in subparagraphs (a)
 and (c) of the Commercial Computer Software - Restricted
 Rights clause in FAR 52.227-19.
  
 Gaussian, Inc.
 340 Quinnipiac St., Bldg. 40, Wallingford CT 06492
  
  
 ---------------------------------------------------------------
 Warning -- This program may not be used in any manner that
 competes with the business of Gaussian, Inc. or will provide
 assistance to any competitor of Gaussian, Inc.  The licensee
 of this program is prohibited from giving any competitor of
 Gaussian, Inc. access to this program.  By using this program,
 the user acknowledges that Gaussian, Inc. is engaged in the
 business of creating and licensing software in the field of
 computational chemistry and represents and warrants to the
 licensee that it is not a competitor of Gaussian, Inc. and that
 it will not use this program in any manner prohibited above.
 ---------------------------------------------------------------
  

 Cite this work as:
 Gaussian 16, Revision A.03,
 M. J. Frisch, G. W. Trucks, H. B. Schlegel, G. E. Scuseria, 
 M. A. Robb, J. R. Cheeseman, G. Scalmani, V. Barone, 
 G. A. Petersson, H. Nakatsuji, X. Li, M. Caricato, A. V. Marenich, 
 J. Bloino, B. G. Janesko, R. Gomperts, B. Mennucci, H. P. Hratchian, 
 J. V. Ortiz, A. F. Izmaylov, J. L. Sonnenberg, D. Williams-Young, 
 F. Ding, F. Lipparini, F. Egidi, J. Goings, B. Peng, A. Petrone, 
 T. Henderson, D. Ranasinghe, V. G. Zakrzewski, J. Gao, N. Rega, 
 G. Zheng, W. Liang, M. Hada, M. Ehara, K. Toyota, R. Fukuda, 
 J. Hasegawa, M. Ishida, T. Nakajima, Y. Honda, O. Kitao, H. Nakai, 
 T. Vreven, K. Throssell, J. A. Montgomery, Jr., J. E. Peralta, 
 F. Ogliaro, M. J. Bearpark, J. J. Heyd, E. N. Brothers, K. N. Kudin, 
 V. N. Staroverov, T. A. Keith, R. Kobayashi, J. Normand, 
 K. Raghavachari, A. P. Rendell, J. C. Burant, S. S. Iyengar, 
 J. Tomasi, M. Cossi, J. M. Millam, M. Klene, C. Adamo, R. Cammi, 
 J. W. Ochterski, R. L. Martin, K. Morokuma, O. Farkas, 
 J. B. Foresman, and D. J. Fox, Gaussian, Inc., Wallingford CT, 2016.
 
 ******************************************
 Gaussian 16:  ES64L-G16RevA.03 25-Dec-2016
                27-Jan-2023 
 ******************************************
 %nprocs=12
 Will use up to   12 processors via shared memory.
 %mem=16GB
 %chk=1c6r_III_H.chk
 ----------------------------------------------------------------------
 # PBE1PBE/def2TZVP empiricaldispersion=GD3BJ int=(grid=ultrafine) geom
 =check guess=read scrf=(smd,solvent=Chloroform)
 ----------------------------------------------------------------------
 1/29=2,38=1,172=1/1;
 2/12=2,40=1/2;
 3/5=44,7=101,11=2,14=-4,25=1,30=1,70=32201,72=7,74=-13,75=-5,116=-2,124=41/1,2,3;
 4/5=1/1;
 5/5=2,38=6,53=7/2;
 6/7=2,8=2,9=2,10=2,28=1/1;
 99/5=1,9=1/99;
 ---------------
 1c6r_III_H_solv
 ---------------
 Structure from the checkpoint file:  "1c6r_III_H.chk"
 Charge =  1 Multiplicity = 6
 Z-Matrix found in chk file.
 C,0,8.89,8.219,4.835
 C,0,8.542,9.673,4.721
 N,0,9.424,10.61,4.23
 C,0,7.431,10.356,5.086
 C,0,8.878,11.811,4.304
 N,0,7.668,11.684,4.819
 C,0,4.888,17.037001,4.584
 C,0,4.631,16.620001,6.026
 S,0,4.631,14.848,6.261
 C,0,4.365,14.756,8.063
 C,0,8.735,15.487,5.374
 C,0,7.2,12.459,8.761
 C,0,3.75,11.022,5.782
 C,0,5.717,13.521,2.146
 C,0,8.67,14.779,6.56
 C,0,9.56,14.991,7.706
 C,0,9.051,14.192,8.704
 C,0,7.94,13.454,8.12
 C,0,9.493,14.114,10.165
 C,0,10.815,15.92,7.701
 C,0,11.998,15.412,6.85
 C,0,13.116,16.438999,6.68
 O,0,14.251,16.030001,6.325
 O,0,12.866,17.65,6.869
 C,0,6.098,11.782,8.238
 C,0,5.333,10.788,8.931
 C,0,4.295,10.442,8.131
 C,0,4.479,11.225,6.939
 C,0,5.678,10.242,10.31
 C,0,3.22,9.557,8.391
 C,0,2.224,9.871,9.331
 C,0,4.,11.535,4.54
 C,0,3.264,11.197,3.338
 C,0,3.857,11.84,2.313
 C,0,4.947,12.6,2.87
 C,0,2.19,10.125,3.253
 C,0,3.625,11.653,0.936
 C,0,2.443,12.128,0.328
 C,0,6.634,14.375,2.733
 C,0,7.324,15.495,2.068
 C,0,8.118,16.086,2.995
 C,0,7.947,15.317,4.238
 C,0,7.232,15.862,0.614
 C,0,9.001,17.297001,2.816
 C,0,8.309,18.487,3.442
 C,0,8.967,19.802999,3.062
 O,0,9.935,20.219999,3.735
 O,0,8.548,20.422001,2.068
 N,0,7.704,13.845,6.815
 N,0,5.584,12.017,7.002
 N,0,5.036,12.387,4.26
 N,0,6.991,14.326,4.102
 Fe,0,6.33,13.14,5.558
 H,0,13.58468023,18.27886097,6.96714585
 H,0,12.40431272,14.5390858,7.31672344
 H,0,11.63122057,15.14310058,5.88146195
 H,0,10.52155682,16.87983182,7.33017123
 H,0,11.15175042,16.03592022,8.70999042
 H,0,10.43246649,14.61295289,10.28053668
 H,0,8.75982497,14.58601378,10.78512689
 H,0,9.59614573,13.08842677,10.45215936
 H,0,7.50791538,12.18931582,9.74961447
 H,0,6.60974084,10.65596075,10.63464673
 H,0,4.90787415,10.51022619,11.00271992
 H,0,5.7588075,9.17615311,10.26162065
 H,0,2.44773403,10.52173565,10.15038159
 H,0,1.24178262,9.45938383,9.22745699
 H,0,3.16527293,8.62954242,7.86022002
 H,0,2.89076353,10.39027893,5.86883994
 H,0,2.55611562,9.21811778,3.68707832
 H,0,1.31980188,10.44899944,3.78467621
 H,0,1.93795875,9.95316709,2.22740327
 H,0,2.4623702,12.4673844,-0.68656544
 H,0,1.52762269,12.14868727,0.88167537
 H,0,4.35527065,11.14361116,0.34259644
 H,0,5.5890079,13.56591299,1.08463256
 H,0,8.08217155,15.47315201,0.0935141
 H,0,6.33814784,15.44696689,0.19725567
 H,0,7.2101597,16.92725257,0.51571492
 H,0,9.47769304,16.25556691,5.32289285
 H,0,9.94166855,17.13191877,3.29848372
 H,0,9.15742727,17.47828317,1.77313506
 H,0,8.33418803,18.38182338,4.50652029
 H,0,7.28899129,18.50382819,3.11920122
 H,0,9.16906913,20.80896693,1.44660599
 H,0,5.80931057,16.60915603,4.24779245
 H,0,4.0870674,16.69106919,3.96453398
 H,0,4.94818898,18.10375995,4.52653141
 H,0,5.39006379,17.04799101,6.64692408
 H,0,3.68049601,17.00597242,6.33008589
 H,0,5.17729152,15.2352587,8.5683648
 H,0,3.44867207,15.24825227,8.31386016
 H,0,4.31298179,13.73051525,8.36395704
 H,0,9.82257476,8.11470751,5.3491278
 H,0,8.12298422,7.71041323,5.38082625
 H,0,8.97277949,7.79428115,3.85639821
 H,0,10.33673412,10.41196317,3.87265164
 H,0,9.33680581,12.72836708,3.99931186
 H,0,6.53752333,9.94074347,5.50332655
 Recover connectivity data from disk.
 Stoichiometry    C41H46FeN6O4S(1+,6)
 Framework group  C1[X(C41H46FeN6O4S)]
 Deg. of freedom   291
 Full point group                 C1      NOp   1
 Largest Abelian subgroup         C1      NOp   1
 Largest concise Abelian subgroup C1      NOp   1
                         Standard orientation:                         
 ---------------------------------------------------------------------
 Center     Atomic      Atomic             Coordinates (Angstroms)
 Number     Number       Type             X           Y           Z
 ---------------------------------------------------------------------
      1          6           0        2.736242   -1.776043    4.898489
      2          6           0        1.883989   -1.152163    3.834226
      3          7           0        0.549537   -0.869223    4.024381
      4          6           0        2.163217   -0.809694    2.554077
      5          6           0        0.037210   -0.387008    2.905909
      6          7           0        0.996331   -0.339799    1.998544
      7          6           0       -1.121194    2.447425   -2.919353
      8          6           0       -0.477081    1.206254   -3.522607
      9         16           0        0.855251    0.546857   -2.529984
     10          6           0        1.307309   -0.917554   -3.518704
     11          6           0       -2.452476   -0.302014   -0.004859
     12          6           0        1.190179   -3.341197   -0.705720
     13          6           0        4.205773    0.356876   -0.436711
     14          6           0        0.636291    3.287494    0.979221
     15          6           0       -1.751367   -1.480337   -0.183986
     16          6           0       -2.369027   -2.801194   -0.339528
     17          6           0       -1.326576   -3.648109   -0.638721
     18          6           0       -0.109593   -2.852222   -0.564296
     19          6           0       -1.395852   -5.121432   -1.039331
     20          6           0       -3.890341   -3.101707   -0.156806
     21          6           0       -4.402298   -3.010647    1.296247
     22          6           0       -5.923453   -3.084036    1.415627
     23          8           0       -6.419370   -3.374962    2.534089
     24          8           0       -6.627206   -2.826887    0.413953
     25          6           0        2.363236   -2.586173   -0.693935
     26          6           0        3.684907   -3.108953   -0.876683
     27          6           0        4.539660   -2.057220   -0.897027
     28          6           0        3.703305   -0.905992   -0.689675
     29          6           0        4.015606   -4.589969   -1.003218
     30          6           0        5.937894   -2.043612   -1.123315
     31          6           0        6.478357   -2.342578   -2.385349
     32          6           0        3.518583    1.453110    0.004053
     33          6           0        4.119993    2.723094    0.359285
     34          6           0        3.133375    3.516717    0.820229
     35          6           0        1.911080    2.758917    0.732570
     36          6           0        5.615681    2.986007    0.419954
     37          6           0        3.267557    4.758189    1.472659
     38          6           0        3.635550    5.918056    0.757325
     39          6           0       -0.536506    2.603013    0.713125
     40          6           0       -1.897794    3.166591    0.757848
     41          6           0       -2.755821    2.174098    0.414640
     42          6           0       -1.932585    0.976801    0.181374
     43          6           0       -2.273862    4.556564    1.186588
     44          6           0       -4.256939    2.257772    0.280854
     45          6           0       -4.600448    2.323799   -1.190363
     46          6           0       -6.052051    2.705642   -1.427561
     47          8           0       -6.927044    1.812214   -1.431703
     48          8           0       -6.342982    3.905097   -1.580619
     49          7           0       -0.390255   -1.522294   -0.311070
     50          7           0        2.390691   -1.235478   -0.545656
     51          7           0        2.168352    1.465181    0.237144
     52          7           0       -0.581066    1.253457    0.288007
     53         26           0        0.900382   -0.022733   -0.086298
     54          1           0       -7.558144   -3.061246    0.408417
     55          1           0       -3.976441   -3.814701    1.859312
     56          1           0       -4.071037   -2.084546    1.717558
     57          1           0       -4.444431   -2.407006   -0.752856
     58          1           0       -4.084250   -4.089127   -0.520538
     59          1           0       -2.376239   -5.500001   -0.838268
     60          1           0       -1.183695   -5.217435   -2.083684
     61          1           0       -0.676122   -5.678309   -0.476503
     62          1           0        1.297200   -4.397853   -0.835818
     63          1           0        3.126999   -5.167652   -0.856384
     64          1           0        4.410848   -4.785133   -1.978203
     65          1           0        4.741345   -4.857795   -0.263980
     66          1           0        5.944017   -2.979497   -3.058932
     67          1           0        7.424277   -1.933331   -2.672842
     68          1           0        6.596599   -1.800465   -0.315919
     69          1           0        5.253742    0.491703   -0.605477
     70          1           0        6.089599    2.218821    0.995911
     71          1           0        6.018030    2.987664   -0.571516
     72          1           0        5.792415    3.936636    0.878179
     73          1           0        3.256084    6.873171    1.055084
     74          1           0        4.293970    5.842170   -0.082690
     75          1           0        3.087938    4.822748    2.525498
     76          1           0        0.566579    4.271059    1.394719
     77          1           0       -2.613809    4.537223    2.200966
     78          1           0       -1.420296    5.197070    1.108631
     79          1           0       -3.055310    4.925316    0.555509
     80          1           0       -3.519477   -0.381915   -0.009894
     81          1           0       -4.706814    1.390762    0.717667
     82          1           0       -4.614533    3.137171    0.774498
     83          1           0       -4.417467    1.366561   -1.632078
     84          1           0       -3.970141    3.049130   -1.661010
     85          1           0       -7.113335    4.272077   -1.140754
     86          1           0       -1.458655    2.228068   -1.927939
     87          1           0       -0.403746    3.240496   -2.884612
     88          1           0       -1.953732    2.745753   -3.521667
     89          1           0       -1.226906    0.451216   -3.634769
     90          1           0       -0.093008    1.455220   -4.489769
     91          1           0        0.470968   -1.582677   -3.573893
     92          1           0        1.584199   -0.610067   -4.505458
     93          1           0        2.131968   -1.419047   -3.056814
     94          1           0        2.250615   -2.651209    5.276841
     95          1           0        3.684772   -2.045819    4.483264
     96          1           0        2.881521   -1.076311    5.694836
     97          1           0        0.046076   -1.007408    4.877278
     98          1           0       -0.979338   -0.086520    2.760176
     99          1           0        3.112514   -0.889636    2.066897
 ---------------------------------------------------------------------
 Rotational constants (GHZ):           0.0664570           0.0432910           0.0345974
 Standard basis: def2TZVP (5D, 7F)
 There are  2206 symmetry adapted cartesian basis functions of A   symmetry.
 There are  1939 symmetry adapted basis functions of A   symmetry.
  1939 basis functions,  3140 primitive gaussians,  2206 cartesian basis functions
   206 alpha electrons      201 beta electrons
       nuclear repulsion energy      8850.4884414278 Hartrees.
 NAtoms=   99 NActive=   99 NUniq=   99 SFac= 1.00D+00 NAtFMM=   60 NAOKFM=T Big=T
 Integral buffers will be    131072 words long.
 Raffenetti 2 integral format.
 Two-electron integral symmetry is turned on.
 Nuclear repulsion after empirical dispersion term =     8850.3422195728 Hartrees.
 ------------------------------------------------------------------------------
 Polarizable Continuum Model (PCM)
 =================================
 Model                : PCM.
 Atomic radii         : SMD-Coulomb.
 Polarization charges : Total charges.
 Charge compensation  : None.
 Solution method      : On-the-fly selection.
 Cavity type          : VdW (van der Waals Surface) (Alpha=1.000).
 Cavity algorithm     : GePol (No added spheres)
                        Default sphere list used, NSphG=   99.
                        Lebedev-Laikov grids with approx.  5.0 points / Ang**2.
                        Smoothing algorithm: York/Karplus (Gamma=1.0000).
                        Polarization charges: spherical gaussians, with
                                              point-specific exponents (IZeta= 3).
                        Self-potential: point-specific (ISelfS= 7).
                        Self-field    : sphere-specific E.n sum rule (ISelfD= 2).
 Solvent              : Chloroform, Eps=   4.711300 Eps(inf)=   2.090627
 ------------------------------------------------------------------------------
 ------------------------------------------------------------------------------
 Atomic radii for non-electrostatic terms: SMD-CDS.
 ------------------------------------------------------------------------------
 Nuclear repulsion after PCM non-electrostatic terms =     8850.3222437006 Hartrees.
 One-electron integrals computed using PRISM.
   1 Symmetry operations used in ECPInt.
 ECPInt:  NShTT=  299151 NPrTT=  925475 LenC2=  219803 LenP2D=  438650.
 LDataN:  DoStor=T MaxTD1= 6 Len=  172
 NBasis=  1939 RedAO= T EigKep=  3.52D-06  NBF=  1939
 NBsUse=  1939 1.00D-06 EigRej= -1.00D+00 NBFU=  1939
 Initial guess from the checkpoint file:  "1c6r_III_H.chk"
 B after Tr=     0.000000    0.000000   -0.000000
         Rot=    1.000000    0.000000    0.000000   -0.000000 Ang=   0.00 deg.
 Initial guess <Sx>= 0.0000 <Sy>= 0.0000 <Sz>= 2.5000 <S**2>= 8.7611 S= 2.5018
 Requested convergence on RMS density matrix=1.00D-08 within 128 cycles.
 Requested convergence on MAX density matrix=1.00D-06.
 Requested convergence on             energy=1.00D-06.
 No special actions if energy rises.
 Inv3:  Mode=1 IEnd=   150846843.
 Iteration    1 A*A^-1 deviation from unit magnitude is 3.55D-15 for   3731.
 Iteration    1 A*A^-1 deviation from orthogonality  is 2.62D-15 for   2075   1920.
 Iteration    1 A^-1*A deviation from unit magnitude is 3.33D-15 for   3731.
 Iteration    1 A^-1*A deviation from orthogonality  is 2.00D-15 for   5142   4445.
 Error on total polarization charges =  0.07834
 SCF Done:  E(UPBE1PBE) =  -3879.33555843     A.U. after   19 cycles
            NFock= 19  Conv=0.33D-08     -V/T= 2.0030
 <Sx>= 0.0000 <Sy>= 0.0000 <Sz>= 2.5000 <S**2>= 8.7608 S= 2.5018
 <L.S>= 0.000000000000E+00
 SMD-CDS (non-electrostatic) energy       (kcal/mol) =     -12.54
 (included in total energy above)
 Annihilation of the first spin contaminant:
 S**2 before annihilation     8.7608,   after     8.7500

 **********************************************************************

            Population analysis using the SCF density.

 **********************************************************************

 Orbital symmetries:
 Alpha Orbitals:
       Occupied  (A) (A) (A) (A) (A) (A) (A) (A) (A) (A) (A) (A)
                 (A) (A) (A) (A) (A) (A) (A) (A) (A) (A) (A) (A)
                 (A) (A) (A) (A) (A) (A) (A) (A) (A) (A) (A) (A)
                 (A) (A) (A) (A) (A) (A) (A) (A) (A) (A) (A) (A)
                 (A) (A) (A) (A) (A) (A) (A) (A) (A) (A) (A) (A)
                 (A) (A) (A) (A) (A) (A) (A) (A) (A) (A) (A) (A)
                 (A) (A) (A) (A) (A) (A) (A) (A) (A) (A) (A) (A)
                 (A) (A) (A) (A) (A) (A) (A) (A) (A) (A) (A) (A)
                 (A) (A) (A) (A) (A) (A) (A) (A) (A) (A) (A) (A)
                 (A) (A) (A) (A) (A) (A) (A) (A) (A) (A) (A) (A)
                 (A) (A) (A) (A) (A) (A) (A) (A) (A) (A) (A) (A)
                 (A) (A) (A) (A) (A) (A) (A) (A) (A) (A) (A) (A)
                 (A) (A) (A) (A) (A) (A) (A) (A) (A) (A) (A) (A)
                 (A) (A) (A) (A) (A) (A) (A) (A) (A) (A) (A) (A)
                 (A) (A) (A) (A) (A) (A) (A) (A) (A) (A) (A) (A)
                 (A) (A) (A) (A) (A) (A) (A) (A) (A) (A) (A) (A)
                 (A) (A) (A) (A) (A) (A) (A) (A) (A) (A) (A) (A)
                 (A) (A)
       Virtual   (A) (A) (A) (A) (A) (A) (A) (A) (A) (A) (A) (A)
                 (A) (A) (A) (A) (A) (A) (A) (A) (A) (A) (A) (A)
                 (A) (A) (A) (A) (A) (A) (A) (A) (A) (A) (A) (A)
                 (A) (A) (A) (A) (A) (A) (A) (A) (A) (A) (A) (A)
                 (A) (A) (A) (A) (A) (A) (A) (A) (A) (A) (A) (A)
                 (A) (A) (A) (A) (A) (A) (A) (A) (A) (A) (A) (A)
                 (A) (A) (A) (A) (A) (A) (A) (A) (A) (A) (A) (A)
                 (A) (A) (A) (A) (A) (A) (A) (A) (A) (A) (A) (A)
                 (A) (A) (A) (A) (A) (A) (A) (A) (A) (A) (A) (A)
                 (A) (A) (A) (A) (A) (A) (A) (A) (A) (A) (A) (A)
                 (A) (A) (A) (A) (A) (A) (A) (A) (A) (A) (A) (A)
                 (A) (A) (A) (A) (A) (A) (A) (A) (A) (A) (A) (A)
                 (A) (A) (A) (A) (A) (A) (A) (A) (A) (A) (A) (A)
                 (A) (A) (A) (A) (A) (A) (A) (A) (A) (A) (A) (A)
                 (A) (A) (A) (A) (A) (A) (A) (A) (A) (A) (A) (A)
                 (A) (A) (A) (A) (A) (A) (A) (A) (A) (A) (A) (A)
                 (A) (A) (A) (A) (A) (A) (A) (A) (A) (A) (A) (A)
                 (A) (A) (A) (A) (A) (A) (A) (A) (A) (A) (A) (A)
                 (A) (A) (A) (A) (A) (A) (A) (A) (A) (A) (A) (A)
                 (A) (A) (A) (A) (A) (A) (A) (A) (A) (A) (A) (A)
                 (A) (A) (A) (A) (A) (A) (A) (A) (A) (A) (A) (A)
                 (A) (A) (A) (A) (A) (A) (A) (A) (A) (A) (A) (A)
                 (A) (A) (A) (A) (A) (A) (A) (A) (A) (A) (A) (A)
                 (A) (A) (A) (A) (A) (A) (A) (A) (A) (A) (A) (A)
                 (A) (A) (A) (A) (A) (A) (A) (A) (A) (A) (A) (A)
                 (A) (A) (A) (A) (A) (A) (A) (A) (A) (A) (A) (A)
                 (A) (A) (A) (A) (A) (A) (A) (A) (A) (A) (A) (A)
                 (A) (A) (A) (A) (A) (A) (A) (A) (A) (A) (A) (A)
                 (A) (A) (A) (A) (A) (A) (A) (A) (A) (A) (A) (A)
                 (A) (A) (A) (A) (A) (A) (A) (A) (A) (A) (A) (A)
                 (A) (A) (A) (A) (A) (A) (A) (A) (A) (A) (A) (A)
                 (A) (A) (A) (A) (A) (A) (A) (A) (A) (A) (A) (A)
                 (A) (A) (A) (A) (A) (A) (A) (A) (A) (A) (A) (A)
                 (A) (A) (A) (A) (A) (A) (A) (A) (A) (A) (A) (A)
                 (A) (A) (A) (A) (A) (A) (A) (A) (A) (A) (A) (A)
                 (A) (A) (A) (A) (A) (A) (A) (A) (A) (A) (A) (A)
                 (A) (A) (A) (A) (A) (A) (A) (A) (A) (A) (A) (A)
                 (A) (A) (A) (A) (A) (A) (A) (A) (A) (A) (A) (A)
                 (A) (A) (A) (A) (A) (A) (A) (A) (A) (A) (A) (A)
                 (A) (A) (A) (A) (A) (A) (A) (A) (A) (A) (A) (A)
                 (A) (A) (A) (A) (A) (A) (A) (A) (A) (A) (A) (A)
                 (A) (A) (A) (A) (A) (A) (A) (A) (A) (A) (A) (A)
                 (A) (A) (A) (A) (A) (A) (A) (A) (A) (A) (A) (A)
                 (A) (A) (A) (A) (A) (A) (A) (A) (A) (A) (A) (A)
                 (A) (A) (A) (A) (A) (A) (A) (A) (A) (A) (A) (A)
                 (A) (A) (A) (A) (A) (A) (A) (A) (A) (A) (A) (A)
                 (A) (A) (A) (A) (A) (A) (A) (A) (A) (A) (A) (A)
                 (A) (A) (A) (A) (A) (A) (A) (A) (A) (A) (A) (A)
                 (A) (A) (A) (A) (A) (A) (A) (A) (A) (A) (A) (A)
                 (A) (A) (A) (A) (A) (A) (A) (A) (A) (A) (A) (A)
                 (A) (A) (A) (A) (A) (A) (A) (A) (A) (A) (A) (A)
                 (A) (A) (A) (A) (A) (A) (A) (A) (A) (A) (A) (A)
                 (A) (A) (A) (A) (A) (A) (A) (A) (A) (A) (A) (A)
                 (A) (A) (A) (A) (A) (A) (A) (A) (A) (A) (A) (A)
                 (A) (A) (A) (A) (A) (A) (A) (A) (A) (A) (A) (A)
                 (A) (A) (A) (A) (A) (A) (A) (A) (A) (A) (A) (A)
                 (A) (A) (A) (A) (A) (A) (A) (A) (A) (A) (A) (A)
                 (A) (A) (A) (A) (A) (A) (A) (A) (A) (A) (A) (A)
                 (A) (A) (A) (A) (A) (A) (A) (A) (A) (A) (A) (A)
                 (A) (A) (A) (A) (A) (A) (A) (A) (A) (A) (A) (A)
                 (A) (A) (A) (A) (A) (A) (A) (A) (A) (A) (A) (A)
                 (A) (A) (A) (A) (A) (A) (A) (A) (A) (A) (A) (A)
                 (A) (A) (A) (A) (A) (A) (A) (A) (A) (A) (A) (A)
                 (A) (A) (A) (A) (A) (A) (A) (A) (A) (A) (A) (A)
                 (A) (A) (A) (A) (A) (A) (A) (A) (A) (A) (A) (A)
                 (A) (A) (A) (A) (A) (A) (A) (A) (A) (A) (A) (A)
                 (A) (A) (A) (A) (A) (A) (A) (A) (A) (A) (A) (A)
                 (A) (A) (A) (A) (A) (A) (A) (A) (A) (A) (A) (A)
                 (A) (A) (A) (A) (A) (A) (A) (A) (A) (A) (A) (A)
                 (A) (A) (A) (A) (A) (A) (A) (A) (A) (A) (A) (A)
                 (A) (A) (A) (A) (A) (A) (A) (A) (A) (A) (A) (A)
                 (A) (A) (A) (A) (A) (A) (A) (A) (A) (A) (A) (A)
                 (A) (A) (A) (A) (A) (A) (A) (A) (A) (A) (A) (A)
                 (A) (A) (A) (A) (A) (A) (A) (A) (A) (A) (A) (A)
                 (A) (A) (A) (A) (A) (A) (A) (A) (A) (A) (A) (A)
                 (A) (A) (A) (A) (A) (A) (A) (A) (A) (A) (A) (A)
                 (A) (A) (A) (A) (A) (A) (A) (A) (A) (A) (A) (A)
                 (A) (A) (A) (A) (A) (A) (A) (A) (A) (A) (A) (A)
                 (A) (A) (A) (A) (A) (A) (A) (A) (A) (A) (A) (A)
                 (A) (A) (A) (A) (A) (A) (A) (A) (A) (A) (A) (A)
                 (A) (A) (A) (A) (A) (A) (A) (A) (A) (A) (A) (A)
                 (A) (A) (A) (A) (A) (A) (A) (A) (A) (A) (A) (A)
                 (A) (A) (A) (A) (A) (A) (A) (A) (A) (A) (A) (A)
                 (A) (A) (A) (A) (A) (A) (A) (A) (A) (A) (A) (A)
                 (A) (A) (A) (A) (A) (A) (A) (A) (A) (A) (A) (A)
                 (A) (A) (A) (A) (A) (A) (A) (A) (A) (A) (A) (A)
                 (A) (A) (A) (A) (A) (A) (A) (A) (A) (A) (A) (A)
                 (A) (A) (A) (A) (A) (A) (A) (A) (A) (A) (A) (A)
                 (A) (A) (A) (A) (A) (A) (A) (A) (A) (A) (A) (A)
                 (A) (A) (A) (A) (A) (A) (A) (A) (A) (A) (A) (A)
                 (A) (A) (A) (A) (A) (A) (A) (A) (A) (A) (A) (A)
                 (A) (A) (A) (A) (A) (A) (A) (A) (A) (A) (A) (A)
                 (A) (A) (A) (A) (A) (A) (A) (A) (A) (A) (A) (A)
                 (A) (A) (A) (A) (A) (A) (A) (A) (A) (A) (A) (A)
                 (A) (A) (A) (A) (A) (A) (A) (A) (A) (A) (A) (A)
                 (A) (A) (A) (A) (A) (A) (A) (A) (A) (A) (A) (A)
                 (A) (A) (A) (A) (A) (A) (A) (A) (A) (A) (A) (A)
                 (A) (A) (A) (A) (A) (A) (A) (A) (A) (A) (A) (A)
                 (A) (A) (A) (A) (A) (A) (A) (A) (A) (A) (A) (A)
                 (A) (A) (A) (A) (A) (A) (A) (A) (A) (A) (A) (A)
                 (A) (A) (A) (A) (A) (A) (A) (A) (A) (A) (A) (A)
                 (A) (A) (A) (A) (A) (A) (A) (A) (A) (A) (A) (A)
                 (A) (A) (A) (A) (A) (A) (A) (A) (A) (A) (A) (A)
                 (A) (A) (A) (A) (A) (A) (A) (A) (A) (A) (A) (A)
                 (A) (A) (A) (A) (A) (A) (A) (A) (A) (A) (A) (A)
                 (A) (A) (A) (A) (A) (A) (A) (A) (A) (A) (A) (A)
                 (A) (A) (A) (A) (A) (A) (A) (A) (A) (A) (A) (A)
                 (A) (A) (A) (A) (A) (A) (A) (A) (A) (A) (A) (A)
                 (A) (A) (A) (A) (A) (A) (A) (A) (A) (A) (A) (A)
                 (A) (A) (A) (A) (A) (A) (A) (A) (A) (A) (A) (A)
                 (A) (A) (A) (A) (A) (A) (A) (A) (A) (A) (A) (A)
                 (A) (A) (A) (A) (A) (A) (A) (A) (A) (A) (A) (A)
                 (A) (A) (A) (A) (A) (A) (A) (A) (A) (A) (A) (A)
                 (A) (A) (A) (A) (A) (A) (A) (A) (A) (A) (A) (A)
                 (A) (A) (A) (A) (A) (A) (A) (A) (A) (A) (A) (A)
                 (A) (A) (A) (A) (A) (A) (A) (A) (A) (A) (A) (A)
                 (A) (A) (A) (A) (A) (A) (A) (A) (A) (A) (A) (A)
                 (A) (A) (A) (A) (A) (A) (A) (A) (A) (A) (A) (A)
                 (A) (A) (A) (A) (A) (A) (A) (A) (A) (A) (A) (A)
                 (A) (A) (A) (A) (A) (A) (A) (A) (A) (A) (A) (A)
                 (A) (A) (A) (A) (A) (A) (A) (A) (A) (A) (A) (A)
                 (A) (A) (A) (A) (A) (A) (A) (A) (A) (A) (A) (A)
                 (A) (A) (A) (A) (A) (A) (A) (A) (A) (A) (A) (A)
                 (A) (A) (A) (A) (A) (A) (A) (A) (A) (A) (A) (A)
                 (A) (A) (A) (A) (A) (A) (A) (A) (A) (A) (A) (A)
                 (A) (A) (A) (A) (A) (A) (A) (A) (A) (A) (A) (A)
                 (A) (A) (A) (A) (A) (A) (A) (A) (A) (A) (A) (A)
                 (A) (A) (A) (A) (A) (A) (A) (A) (A) (A) (A) (A)
                 (A) (A) (A) (A) (A) (A) (A) (A) (A) (A) (A) (A)
                 (A) (A) (A) (A) (A) (A) (A) (A) (A) (A) (A) (A)
                 (A) (A) (A) (A) (A) (A) (A) (A) (A) (A) (A) (A)
                 (A) (A) (A) (A) (A) (A) (A) (A) (A) (A) (A) (A)
                 (A) (A) (A) (A) (A) (A) (A) (A) (A) (A) (A) (A)
                 (A) (A) (A) (A) (A) (A) (A) (A) (A) (A) (A) (A)
                 (A) (A) (A) (A) (A) (A) (A) (A) (A) (A) (A) (A)
                 (A) (A) (A) (A) (A) (A) (A) (A) (A) (A) (A) (A)
                 (A) (A) (A) (A) (A) (A) (A) (A) (A) (A) (A) (A)
                 (A) (A) (A) (A) (A) (A) (A) (A) (A) (A) (A) (A)
                 (A) (A) (A) (A) (A) (A) (A) (A) (A) (A) (A) (A)
                 (A) (A) (A) (A) (A) (A) (A) (A) (A) (A) (A) (A)
                 (A) (A) (A) (A) (A) (A) (A) (A) (A) (A) (A) (A)
                 (A) (A) (A) (A) (A) (A) (A) (A) (A) (A) (A) (A)
                 (A) (A) (A) (A) (A) (A) (A) (A) (A) (A) (A) (A)
                 (A) (A) (A) (A) (A) (A) (A) (A) (A) (A) (A) (A)
                 (A) (A) (A) (A) (A)
 Beta  Orbitals:
       Occupied  (A) (A) (A) (A) (A) (A) (A) (A) (A) (A) (A) (A)
                 (A) (A) (A) (A) (A) (A) (A) (A) (A) (A) (A) (A)
                 (A) (A) (A) (A) (A) (A) (A) (A) (A) (A) (A) (A)
                 (A) (A) (A) (A) (A) (A) (A) (A) (A) (A) (A) (A)
                 (A) (A) (A) (A) (A) (A) (A) (A) (A) (A) (A) (A)
                 (A) (A) (A) (A) (A) (A) (A) (A) (A) (A) (A) (A)
                 (A) (A) (A) (A) (A) (A) (A) (A) (A) (A) (A) (A)
                 (A) (A) (A) (A) (A) (A) (A) (A) (A) (A) (A) (A)
                 (A) (A) (A) (A) (A) (A) (A) (A) (A) (A) (A) (A)
                 (A) (A) (A) (A) (A) (A) (A) (A) (A) (A) (A) (A)
                 (A) (A) (A) (A) (A) (A) (A) (A) (A) (A) (A) (A)
                 (A) (A) (A) (A) (A) (A) (A) (A) (A) (A) (A) (A)
                 (A) (A) (A) (A) (A) (A) (A) (A) (A) (A) (A) (A)
                 (A) (A) (A) (A) (A) (A) (A) (A) (A) (A) (A) (A)
                 (A) (A) (A) (A) (A) (A) (A) (A) (A) (A) (A) (A)
                 (A) (A) (A) (A) (A) (A) (A) (A) (A) (A) (A) (A)
                 (A) (A) (A) (A) (A) (A) (A) (A) (A)
       Virtual   (A) (A) (A) (A) (A) (A) (A) (A) (A) (A) (A) (A)
                 (A) (A) (A) (A) (A) (A) (A) (A) (A) (A) (A) (A)
                 (A) (A) (A) (A) (A) (A) (A) (A) (A) (A) (A) (A)
                 (A) (A) (A) (A) (A) (A) (A) (A) (A) (A) (A) (A)
                 (A) (A) (A) (A) (A) (A) (A) (A) (A) (A) (A) (A)
                 (A) (A) (A) (A) (A) (A) (A) (A) (A) (A) (A) (A)
                 (A) (A) (A) (A) (A) (A) (A) (A) (A) (A) (A) (A)
                 (A) (A) (A) (A) (A) (A) (A) (A) (A) (A) (A) (A)
                 (A) (A) (A) (A) (A) (A) (A) (A) (A) (A) (A) (A)
                 (A) (A) (A) (A) (A) (A) (A) (A) (A) (A) (A) (A)
                 (A) (A) (A) (A) (A) (A) (A) (A) (A) (A) (A) (A)
                 (A) (A) (A) (A) (A) (A) (A) (A) (A) (A) (A) (A)
                 (A) (A) (A) (A) (A) (A) (A) (A) (A) (A) (A) (A)
                 (A) (A) (A) (A) (A) (A) (A) (A) (A) (A) (A) (A)
                 (A) (A) (A) (A) (A) (A) (A) (A) (A) (A) (A) (A)
                 (A) (A) (A) (A) (A) (A) (A) (A) (A) (A) (A) (A)
                 (A) (A) (A) (A) (A) (A) (A) (A) (A) (A) (A) (A)
                 (A) (A) (A) (A) (A) (A) (A) (A) (A) (A) (A) (A)
                 (A) (A) (A) (A) (A) (A) (A) (A) (A) (A) (A) (A)
                 (A) (A) (A) (A) (A) (A) (A) (A) (A) (A) (A) (A)
                 (A) (A) (A) (A) (A) (A) (A) (A) (A) (A) (A) (A)
                 (A) (A) (A) (A) (A) (A) (A) (A) (A) (A) (A) (A)
                 (A) (A) (A) (A) (A) (A) (A) (A) (A) (A) (A) (A)
                 (A) (A) (A) (A) (A) (A) (A) (A) (A) (A) (A) (A)
                 (A) (A) (A) (A) (A) (A) (A) (A) (A) (A) (A) (A)
                 (A) (A) (A) (A) (A) (A) (A) (A) (A) (A) (A) (A)
                 (A) (A) (A) (A) (A) (A) (A) (A) (A) (A) (A) (A)
                 (A) (A) (A) (A) (A) (A) (A) (A) (A) (A) (A) (A)
                 (A) (A) (A) (A) (A) (A) (A) (A) (A) (A) (A) (A)
                 (A) (A) (A) (A) (A) (A) (A) (A) (A) (A) (A) (A)
                 (A) (A) (A) (A) (A) (A) (A) (A) (A) (A) (A) (A)
                 (A) (A) (A) (A) (A) (A) (A) (A) (A) (A) (A) (A)
                 (A) (A) (A) (A) (A) (A) (A) (A) (A) (A) (A) (A)
                 (A) (A) (A) (A) (A) (A) (A) (A) (A) (A) (A) (A)
                 (A) (A) (A) (A) (A) (A) (A) (A) (A) (A) (A) (A)
                 (A) (A) (A) (A) (A) (A) (A) (A) (A) (A) (A) (A)
                 (A) (A) (A) (A) (A) (A) (A) (A) (A) (A) (A) (A)
                 (A) (A) (A) (A) (A) (A) (A) (A) (A) (A) (A) (A)
                 (A) (A) (A) (A) (A) (A) (A) (A) (A) (A) (A) (A)
                 (A) (A) (A) (A) (A) (A) (A) (A) (A) (A) (A) (A)
                 (A) (A) (A) (A) (A) (A) (A) (A) (A) (A) (A) (A)
                 (A) (A) (A) (A) (A) (A) (A) (A) (A) (A) (A) (A)
                 (A) (A) (A) (A) (A) (A) (A) (A) (A) (A) (A) (A)
                 (A) (A) (A) (A) (A) (A) (A) (A) (A) (A) (A) (A)
                 (A) (A) (A) (A) (A) (A) (A) (A) (A) (A) (A) (A)
                 (A) (A) (A) (A) (A) (A) (A) (A) (A) (A) (A) (A)
                 (A) (A) (A) (A) (A) (A) (A) (A) (A) (A) (A) (A)
                 (A) (A) (A) (A) (A) (A) (A) (A) (A) (A) (A) (A)
                 (A) (A) (A) (A) (A) (A) (A) (A) (A) (A) (A) (A)
                 (A) (A) (A) (A) (A) (A) (A) (A) (A) (A) (A) (A)
                 (A) (A) (A) (A) (A) (A) (A) (A) (A) (A) (A) (A)
                 (A) (A) (A) (A) (A) (A) (A) (A) (A) (A) (A) (A)
                 (A) (A) (A) (A) (A) (A) (A) (A) (A) (A) (A) (A)
                 (A) (A) (A) (A) (A) (A) (A) (A) (A) (A) (A) (A)
                 (A) (A) (A) (A) (A) (A) (A) (A) (A) (A) (A) (A)
                 (A) (A) (A) (A) (A) (A) (A) (A) (A) (A) (A) (A)
                 (A) (A) (A) (A) (A) (A) (A) (A) (A) (A) (A) (A)
                 (A) (A) (A) (A) (A) (A) (A) (A) (A) (A) (A) (A)
                 (A) (A) (A) (A) (A) (A) (A) (A) (A) (A) (A) (A)
                 (A) (A) (A) (A) (A) (A) (A) (A) (A) (A) (A) (A)
                 (A) (A) (A) (A) (A) (A) (A) (A) (A) (A) (A) (A)
                 (A) (A) (A) (A) (A) (A) (A) (A) (A) (A) (A) (A)
                 (A) (A) (A) (A) (A) (A) (A) (A) (A) (A) (A) (A)
                 (A) (A) (A) (A) (A) (A) (A) (A) (A) (A) (A) (A)
                 (A) (A) (A) (A) (A) (A) (A) (A) (A) (A) (A) (A)
                 (A) (A) (A) (A) (A) (A) (A) (A) (A) (A) (A) (A)
                 (A) (A) (A) (A) (A) (A) (A) (A) (A) (A) (A) (A)
                 (A) (A) (A) (A) (A) (A) (A) (A) (A) (A) (A) (A)
                 (A) (A) (A) (A) (A) (A) (A) (A) (A) (A) (A) (A)
                 (A) (A) (A) (A) (A) (A) (A) (A) (A) (A) (A) (A)
                 (A) (A) (A) (A) (A) (A) (A) (A) (A) (A) (A) (A)
                 (A) (A) (A) (A) (A) (A) (A) (A) (A) (A) (A) (A)
                 (A) (A) (A) (A) (A) (A) (A) (A) (A) (A) (A) (A)
                 (A) (A) (A) (A) (A) (A) (A) (A) (A) (A) (A) (A)
                 (A) (A) (A) (A) (A) (A) (A) (A) (A) (A) (A) (A)
                 (A) (A) (A) (A) (A) (A) (A) (A) (A) (A) (A) (A)
                 (A) (A) (A) (A) (A) (A) (A) (A) (A) (A) (A) (A)
                 (A) (A) (A) (A) (A) (A) (A) (A) (A) (A) (A) (A)
                 (A) (A) (A) (A) (A) (A) (A) (A) (A) (A) (A) (A)
                 (A) (A) (A) (A) (A) (A) (A) (A) (A) (A) (A) (A)
                 (A) (A) (A) (A) (A) (A) (A) (A) (A) (A) (A) (A)
                 (A) (A) (A) (A) (A) (A) (A) (A) (A) (A) (A) (A)
                 (A) (A) (A) (A) (A) (A) (A) (A) (A) (A) (A) (A)
                 (A) (A) (A) (A) (A) (A) (A) (A) (A) (A) (A) (A)
                 (A) (A) (A) (A) (A) (A) (A) (A) (A) (A) (A) (A)
                 (A) (A) (A) (A) (A) (A) (A) (A) (A) (A) (A) (A)
                 (A) (A) (A) (A) (A) (A) (A) (A) (A) (A) (A) (A)
                 (A) (A) (A) (A) (A) (A) (A) (A) (A) (A) (A) (A)
                 (A) (A) (A) (A) (A) (A) (A) (A) (A) (A) (A) (A)
                 (A) (A) (A) (A) (A) (A) (A) (A) (A) (A) (A) (A)
                 (A) (A) (A) (A) (A) (A) (A) (A) (A) (A) (A) (A)
                 (A) (A) (A) (A) (A) (A) (A) (A) (A) (A) (A) (A)
                 (A) (A) (A) (A) (A) (A) (A) (A) (A) (A) (A) (A)
                 (A) (A) (A) (A) (A) (A) (A) (A) (A) (A) (A) (A)
                 (A) (A) (A) (A) (A) (A) (A) (A) (A) (A) (A) (A)
                 (A) (A) (A) (A) (A) (A) (A) (A) (A) (A) (A) (A)
                 (A) (A) (A) (A) (A) (A) (A) (A) (A) (A) (A) (A)
                 (A) (A) (A) (A) (A) (A) (A) (A) (A) (A) (A) (A)
                 (A) (A) (A) (A) (A) (A) (A) (A) (A) (A) (A) (A)
                 (A) (A) (A) (A) (A) (A) (A) (A) (A) (A) (A) (A)
                 (A) (A) (A) (A) (A) (A) (A) (A) (A) (A) (A) (A)
                 (A) (A) (A) (A) (A) (A) (A) (A) (A) (A) (A) (A)
                 (A) (A) (A) (A) (A) (A) (A) (A) (A) (A) (A) (A)
                 (A) (A) (A) (A) (A) (A) (A) (A) (A) (A) (A) (A)
                 (A) (A) (A) (A) (A) (A) (A) (A) (A) (A) (A) (A)
                 (A) (A) (A) (A) (A) (A) (A) (A) (A) (A) (A) (A)
                 (A) (A) (A) (A) (A) (A) (A) (A) (A) (A) (A) (A)
                 (A) (A) (A) (A) (A) (A) (A) (A) (A) (A) (A) (A)
                 (A) (A) (A) (A) (A) (A) (A) (A) (A) (A) (A) (A)
                 (A) (A) (A) (A) (A) (A) (A) (A) (A) (A) (A) (A)
                 (A) (A) (A) (A) (A) (A) (A) (A) (A) (A) (A) (A)
                 (A) (A) (A) (A) (A) (A) (A) (A) (A) (A) (A) (A)
                 (A) (A) (A) (A) (A) (A) (A) (A) (A) (A) (A) (A)
                 (A) (A) (A) (A) (A) (A) (A) (A) (A) (A) (A) (A)
                 (A) (A) (A) (A) (A) (A) (A) (A) (A) (A) (A) (A)
                 (A) (A) (A) (A) (A) (A) (A) (A) (A) (A) (A) (A)
                 (A) (A) (A) (A) (A) (A) (A) (A) (A) (A) (A) (A)
                 (A) (A) (A) (A) (A) (A) (A) (A) (A) (A) (A) (A)
                 (A) (A) (A) (A) (A) (A) (A) (A) (A) (A) (A) (A)
                 (A) (A) (A) (A) (A) (A) (A) (A) (A) (A) (A) (A)
                 (A) (A) (A) (A) (A) (A) (A) (A) (A) (A) (A) (A)
                 (A) (A) (A) (A) (A) (A) (A) (A) (A) (A) (A) (A)
                 (A) (A) (A) (A) (A) (A) (A) (A) (A) (A) (A) (A)
                 (A) (A) (A) (A) (A) (A) (A) (A) (A) (A) (A) (A)
                 (A) (A) (A) (A) (A) (A) (A) (A) (A) (A) (A) (A)
                 (A) (A) (A) (A) (A) (A) (A) (A) (A) (A) (A) (A)
                 (A) (A) (A) (A) (A) (A) (A) (A) (A) (A) (A) (A)
                 (A) (A) (A) (A) (A) (A) (A) (A) (A) (A) (A) (A)
                 (A) (A) (A) (A) (A) (A) (A) (A) (A) (A) (A) (A)
                 (A) (A) (A) (A) (A) (A) (A) (A) (A) (A) (A) (A)
                 (A) (A) (A) (A) (A) (A) (A) (A) (A) (A) (A) (A)
                 (A) (A) (A) (A) (A) (A) (A) (A) (A) (A) (A) (A)
                 (A) (A) (A) (A) (A) (A) (A) (A) (A) (A) (A) (A)
                 (A) (A) (A) (A) (A) (A) (A) (A) (A) (A) (A) (A)
                 (A) (A) (A) (A) (A) (A) (A) (A) (A) (A) (A) (A)
                 (A) (A) (A) (A) (A) (A) (A) (A) (A) (A) (A) (A)
                 (A) (A) (A) (A) (A) (A) (A) (A) (A) (A) (A) (A)
                 (A) (A) (A) (A) (A) (A) (A) (A) (A) (A) (A) (A)
                 (A) (A) (A) (A) (A) (A) (A) (A) (A) (A) (A) (A)
                 (A) (A) (A) (A) (A) (A) (A) (A) (A) (A) (A) (A)
                 (A) (A) (A) (A) (A) (A) (A) (A) (A) (A) (A) (A)
                 (A) (A) (A) (A) (A) (A) (A) (A) (A) (A) (A) (A)
                 (A) (A) (A) (A) (A) (A) (A) (A) (A) (A) (A) (A)
                 (A) (A) (A) (A) (A) (A) (A) (A) (A) (A) (A) (A)
                 (A) (A) (A) (A) (A) (A) (A) (A) (A) (A)
 The electronic state is 6-A.
 Alpha  occ. eigenvalues -- -256.47623 -89.04843 -30.30415 -26.12126 -26.12016
 Alpha  occ. eigenvalues --  -26.11986 -19.27933 -19.27199 -19.19167 -19.18955
 Alpha  occ. eigenvalues --  -14.46282 -14.41588 -14.40928 -14.40839 -14.40661
 Alpha  occ. eigenvalues --  -14.40587 -10.36984 -10.36599 -10.30512 -10.28775
 Alpha  occ. eigenvalues --  -10.28713 -10.28689 -10.28347 -10.28296 -10.28142
 Alpha  occ. eigenvalues --  -10.27993 -10.27982 -10.27551 -10.26018 -10.25956
 Alpha  occ. eigenvalues --  -10.25885 -10.25689 -10.25647 -10.25500 -10.25399
 Alpha  occ. eigenvalues --  -10.25364 -10.25255 -10.25193 -10.25054 -10.24977
 Alpha  occ. eigenvalues --  -10.24924 -10.24909 -10.24667 -10.24652 -10.24651
 Alpha  occ. eigenvalues --  -10.24556 -10.24482 -10.24481 -10.24248 -10.24228
 Alpha  occ. eigenvalues --  -10.24084 -10.23247 -10.22801 -10.22667 -10.22583
 Alpha  occ. eigenvalues --  -10.22293 -10.21829  -8.02777  -5.96401  -5.96147
 Alpha  occ. eigenvalues --   -5.95653  -3.72972  -2.49104  -2.49071  -2.48904
 Alpha  occ. eigenvalues --   -1.18348  -1.18291  -1.08804  -1.03806  -1.03451
 Alpha  occ. eigenvalues --   -1.02537  -1.00817  -1.00418  -0.99245  -0.93340
 Alpha  occ. eigenvalues --   -0.86998  -0.86627  -0.86529  -0.86110  -0.85773
 Alpha  occ. eigenvalues --   -0.85209  -0.84058  -0.83705  -0.82912  -0.81813
 Alpha  occ. eigenvalues --   -0.81200  -0.79581  -0.78757  -0.78501  -0.78363
 Alpha  occ. eigenvalues --   -0.76294  -0.74845  -0.74345  -0.74087  -0.73722
 Alpha  occ. eigenvalues --   -0.72045  -0.71815  -0.71416  -0.69378  -0.68670
 Alpha  occ. eigenvalues --   -0.68557  -0.67034  -0.66780  -0.66551  -0.65093
 Alpha  occ. eigenvalues --   -0.64621  -0.64278  -0.62797  -0.62272  -0.61099
 Alpha  occ. eigenvalues --   -0.58723  -0.58496  -0.57809  -0.57500  -0.57318
 Alpha  occ. eigenvalues --   -0.55636  -0.55377  -0.55139  -0.54648  -0.53656
 Alpha  occ. eigenvalues --   -0.52737  -0.52466  -0.52020  -0.51822  -0.51583
 Alpha  occ. eigenvalues --   -0.51363  -0.50935  -0.50797  -0.50645  -0.50530
 Alpha  occ. eigenvalues --   -0.50107  -0.49723  -0.49445  -0.48894  -0.48728
 Alpha  occ. eigenvalues --   -0.48234  -0.48046  -0.47846  -0.47765  -0.47335
 Alpha  occ. eigenvalues --   -0.47198  -0.46848  -0.46723  -0.46481  -0.46269
 Alpha  occ. eigenvalues --   -0.46163  -0.46092  -0.45670  -0.45588  -0.45234
 Alpha  occ. eigenvalues --   -0.45017  -0.44807  -0.44548  -0.44215  -0.43989
 Alpha  occ. eigenvalues --   -0.43849  -0.43767  -0.43609  -0.43053  -0.42805
 Alpha  occ. eigenvalues --   -0.42506  -0.42335  -0.42281  -0.42219  -0.41669
 Alpha  occ. eigenvalues --   -0.41568  -0.41314  -0.41131  -0.40931  -0.40611
 Alpha  occ. eigenvalues --   -0.40314  -0.40062  -0.39899  -0.39637  -0.39243
 Alpha  occ. eigenvalues --   -0.38946  -0.38831  -0.38580  -0.38433  -0.38398
 Alpha  occ. eigenvalues --   -0.38094  -0.37608  -0.37173  -0.36614  -0.36322
 Alpha  occ. eigenvalues --   -0.35986  -0.35653  -0.34201  -0.33651  -0.33119
 Alpha  occ. eigenvalues --   -0.31286  -0.31169  -0.30571  -0.29513  -0.29464
 Alpha  occ. eigenvalues --   -0.29166  -0.28838  -0.27281  -0.27219  -0.26566
 Alpha  occ. eigenvalues --   -0.26558  -0.25868  -0.25514  -0.25131  -0.22447
 Alpha  occ. eigenvalues --   -0.22048
 Alpha virt. eigenvalues --   -0.10607  -0.10409  -0.04953  -0.04418  -0.03381
 Alpha virt. eigenvalues --   -0.01377  -0.00405  -0.00153   0.00639   0.01096
 Alpha virt. eigenvalues --    0.01248   0.02399   0.02797   0.03099   0.03148
 Alpha virt. eigenvalues --    0.03691   0.03848   0.04108   0.04476   0.04725
 Alpha virt. eigenvalues --    0.05109   0.05385   0.05674   0.05887   0.06435
 Alpha virt. eigenvalues --    0.06780   0.06944   0.07184   0.07575   0.07626
 Alpha virt. eigenvalues --    0.07787   0.07991   0.08403   0.08755   0.09033
 Alpha virt. eigenvalues --    0.09300   0.09381   0.09692   0.09928   0.10204
 Alpha virt. eigenvalues --    0.10319   0.10525   0.10782   0.10881   0.11104
 Alpha virt. eigenvalues --    0.11312   0.11501   0.11948   0.12036   0.12083
 Alpha virt. eigenvalues --    0.12326   0.12436   0.12672   0.12765   0.12949
 Alpha virt. eigenvalues --    0.13177   0.13238   0.13530   0.13755   0.13959
 Alpha virt. eigenvalues --    0.13994   0.14314   0.14413   0.14522   0.14785
 Alpha virt. eigenvalues --    0.14900   0.15214   0.15351   0.15389   0.15537
 Alpha virt. eigenvalues --    0.15830   0.16136   0.16288   0.16442   0.16705
 Alpha virt. eigenvalues --    0.16914   0.17141   0.17522   0.17722   0.17842
 Alpha virt. eigenvalues --    0.18288   0.18431   0.18469   0.18620   0.18826
 Alpha virt. eigenvalues --    0.18935   0.19063   0.19338   0.19524   0.19787
 Alpha virt. eigenvalues --    0.19884   0.19936   0.20379   0.20620   0.20773
 Alpha virt. eigenvalues --    0.20873   0.21085   0.21382   0.21677   0.21727
 Alpha virt. eigenvalues --    0.21927   0.21993   0.22233   0.22606   0.22859
 Alpha virt. eigenvalues --    0.22908   0.23214   0.23344   0.23612   0.23732
 Alpha virt. eigenvalues --    0.23776   0.23925   0.24313   0.24347   0.24533
 Alpha virt. eigenvalues --    0.25025   0.25088   0.25464   0.25559   0.25848
 Alpha virt. eigenvalues --    0.26184   0.26245   0.26738   0.27032   0.27284
 Alpha virt. eigenvalues --    0.27563   0.27764   0.28035   0.28197   0.28311
 Alpha virt. eigenvalues --    0.28610   0.28853   0.29092   0.29437   0.29520
 Alpha virt. eigenvalues --    0.29747   0.29895   0.30307   0.30431   0.30564
 Alpha virt. eigenvalues --    0.30702   0.30994   0.31136   0.31285   0.31732
 Alpha virt. eigenvalues --    0.31782   0.32064   0.32249   0.32526   0.32800
 Alpha virt. eigenvalues --    0.33146   0.33236   0.33354   0.33506   0.33801
 Alpha virt. eigenvalues --    0.34242   0.34328   0.34574   0.34836   0.35029
 Alpha virt. eigenvalues --    0.35151   0.35414   0.35729   0.35919   0.36070
 Alpha virt. eigenvalues --    0.36301   0.36606   0.36652   0.36919   0.36969
 Alpha virt. eigenvalues --    0.37287   0.37487   0.37768   0.37796   0.38103
 Alpha virt. eigenvalues --    0.38294   0.38533   0.38774   0.38840   0.39173
 Alpha virt. eigenvalues --    0.39251   0.39560   0.39821   0.39868   0.39998
 Alpha virt. eigenvalues --    0.40308   0.40523   0.40712   0.40883   0.41212
 Alpha virt. eigenvalues --    0.41327   0.41391   0.41511   0.41733   0.41827
 Alpha virt. eigenvalues --    0.42037   0.42071   0.42287   0.42576   0.42677
 Alpha virt. eigenvalues --    0.42961   0.43047   0.43285   0.43427   0.43603
 Alpha virt. eigenvalues --    0.43699   0.43871   0.44128   0.44160   0.44412
 Alpha virt. eigenvalues --    0.44671   0.44677   0.44853   0.44979   0.45296
 Alpha virt. eigenvalues --    0.45530   0.45588   0.45768   0.45967   0.46059
 Alpha virt. eigenvalues --    0.46305   0.46502   0.46715   0.46840   0.46993
 Alpha virt. eigenvalues --    0.47277   0.47371   0.47692   0.47905   0.47998
 Alpha virt. eigenvalues --    0.48250   0.48304   0.48525   0.48671   0.48803
 Alpha virt. eigenvalues --    0.48880   0.48908   0.49085   0.49189   0.49414
 Alpha virt. eigenvalues --    0.49500   0.49691   0.49966   0.50077   0.50203
 Alpha virt. eigenvalues --    0.50546   0.50641   0.50789   0.50824   0.51065
 Alpha virt. eigenvalues --    0.51234   0.51289   0.51433   0.51739   0.51912
 Alpha virt. eigenvalues --    0.52076   0.52289   0.52499   0.52706   0.52957
 Alpha virt. eigenvalues --    0.53185   0.53289   0.53575   0.53829   0.53937
 Alpha virt. eigenvalues --    0.54257   0.54342   0.54555   0.54692   0.54896
 Alpha virt. eigenvalues --    0.55092   0.55159   0.55508   0.55561   0.55821
 Alpha virt. eigenvalues --    0.56202   0.56350   0.56468   0.56797   0.57109
 Alpha virt. eigenvalues --    0.57218   0.57564   0.57764   0.57898   0.58040
 Alpha virt. eigenvalues --    0.58347   0.58588   0.59002   0.59026   0.59265
 Alpha virt. eigenvalues --    0.59526   0.59675   0.59775   0.60398   0.60644
 Alpha virt. eigenvalues --    0.60888   0.61104   0.61408   0.61464   0.61583
 Alpha virt. eigenvalues --    0.61947   0.62220   0.62542   0.62606   0.63002
 Alpha virt. eigenvalues --    0.63071   0.63478   0.63637   0.63912   0.63987
 Alpha virt. eigenvalues --    0.64186   0.64776   0.64901   0.65091   0.65364
 Alpha virt. eigenvalues --    0.65657   0.65849   0.66265   0.66592   0.66691
 Alpha virt. eigenvalues --    0.66788   0.67360   0.67876   0.68005   0.68327
 Alpha virt. eigenvalues --    0.68827   0.69172   0.69193   0.69597   0.69677
 Alpha virt. eigenvalues --    0.70058   0.70360   0.70451   0.70485   0.70709
 Alpha virt. eigenvalues --    0.70889   0.71211   0.71217   0.71825   0.72076
 Alpha virt. eigenvalues --    0.72432   0.72857   0.73100   0.73703   0.73835
 Alpha virt. eigenvalues --    0.73950   0.74590   0.74779   0.75003   0.75263
 Alpha virt. eigenvalues --    0.75966   0.76066   0.76430   0.76524   0.76783
 Alpha virt. eigenvalues --    0.77046   0.77168   0.77429   0.77742   0.78210
 Alpha virt. eigenvalues --    0.78579   0.78748   0.79069   0.79159   0.80108
 Alpha virt. eigenvalues --    0.80383   0.80468   0.80776   0.81221   0.81485
 Alpha virt. eigenvalues --    0.81629   0.81683   0.81934   0.82761   0.82820
 Alpha virt. eigenvalues --    0.83060   0.83386   0.83810   0.84226   0.84665
 Alpha virt. eigenvalues --    0.84766   0.85087   0.85489   0.85736   0.85904
 Alpha virt. eigenvalues --    0.86021   0.86476   0.87033   0.87201   0.87401
 Alpha virt. eigenvalues --    0.87735   0.87807   0.87948   0.88385   0.88744
 Alpha virt. eigenvalues --    0.88987   0.89006   0.89484   0.89712   0.90080
 Alpha virt. eigenvalues --    0.90192   0.90335   0.90693   0.90817   0.91167
 Alpha virt. eigenvalues --    0.91590   0.91884   0.92105   0.92212   0.92347
 Alpha virt. eigenvalues --    0.92668   0.92740   0.93117   0.93324   0.93675
 Alpha virt. eigenvalues --    0.94101   0.94259   0.94437   0.94882   0.95258
 Alpha virt. eigenvalues --    0.95416   0.95523   0.95843   0.95890   0.96526
 Alpha virt. eigenvalues --    0.96932   0.97207   0.97448   0.97754   0.97843
 Alpha virt. eigenvalues --    0.98188   0.98506   0.98925   0.99167   0.99313
 Alpha virt. eigenvalues --    0.99338   0.99807   1.00105   1.00418   1.00634
 Alpha virt. eigenvalues --    1.01163   1.01483   1.01633   1.01845   1.02085
 Alpha virt. eigenvalues --    1.02177   1.02516   1.02638   1.03068   1.03423
 Alpha virt. eigenvalues --    1.03491   1.03955   1.04073   1.04235   1.04504
 Alpha virt. eigenvalues --    1.04997   1.05055   1.05307   1.05605   1.06200
 Alpha virt. eigenvalues --    1.06372   1.06524   1.06921   1.07197   1.07442
 Alpha virt. eigenvalues --    1.07639   1.07718   1.07931   1.08212   1.08804
 Alpha virt. eigenvalues --    1.09126   1.09740   1.09906   1.10495   1.10707
 Alpha virt. eigenvalues --    1.11229   1.11559   1.11959   1.12254   1.12783
 Alpha virt. eigenvalues --    1.13332   1.13395   1.13933   1.14251   1.14375
 Alpha virt. eigenvalues --    1.14795   1.14999   1.15220   1.15584   1.16072
 Alpha virt. eigenvalues --    1.16348   1.16668   1.17020   1.17142   1.17866
 Alpha virt. eigenvalues --    1.17942   1.18458   1.18766   1.18990   1.19344
 Alpha virt. eigenvalues --    1.19846   1.20026   1.20680   1.20889   1.21101
 Alpha virt. eigenvalues --    1.21323   1.21744   1.22036   1.22132   1.22441
 Alpha virt. eigenvalues --    1.22719   1.23269   1.23381   1.23563   1.23797
 Alpha virt. eigenvalues --    1.24411   1.24533   1.24961   1.25163   1.25445
 Alpha virt. eigenvalues --    1.26024   1.26375   1.26452   1.26972   1.27161
 Alpha virt. eigenvalues --    1.27487   1.28062   1.28495   1.28777   1.29025
 Alpha virt. eigenvalues --    1.29294   1.29408   1.30153   1.30364   1.30613
 Alpha virt. eigenvalues --    1.31124   1.31298   1.31687   1.31823   1.32254
 Alpha virt. eigenvalues --    1.32718   1.32995   1.33350   1.33801   1.34061
 Alpha virt. eigenvalues --    1.34672   1.34722   1.35087   1.35958   1.36195
 Alpha virt. eigenvalues --    1.36297   1.36856   1.37175   1.38143   1.38343
 Alpha virt. eigenvalues --    1.38546   1.38932   1.39233   1.40351   1.40643
 Alpha virt. eigenvalues --    1.40823   1.41711   1.42279   1.42696   1.42874
 Alpha virt. eigenvalues --    1.42966   1.43521   1.44002   1.44107   1.44309
 Alpha virt. eigenvalues --    1.45064   1.45301   1.45817   1.46217   1.46290
 Alpha virt. eigenvalues --    1.46453   1.46630   1.47055   1.47252   1.47567
 Alpha virt. eigenvalues --    1.48024   1.48375   1.48651   1.48795   1.49195
 Alpha virt. eigenvalues --    1.49580   1.49814   1.49952   1.50469   1.50716
 Alpha virt. eigenvalues --    1.50755   1.51525   1.51557   1.52264   1.52452
 Alpha virt. eigenvalues --    1.52646   1.52932   1.53110   1.53383   1.53572
 Alpha virt. eigenvalues --    1.53804   1.53920   1.54187   1.54298   1.54890
 Alpha virt. eigenvalues --    1.55245   1.55536   1.55648   1.55806   1.56039
 Alpha virt. eigenvalues --    1.56084   1.56645   1.56783   1.57104   1.57144
 Alpha virt. eigenvalues --    1.57382   1.57694   1.57851   1.57995   1.58189
 Alpha virt. eigenvalues --    1.58433   1.58645   1.58933   1.59269   1.59559
 Alpha virt. eigenvalues --    1.59682   1.59940   1.60214   1.60499   1.60766
 Alpha virt. eigenvalues --    1.60954   1.61239   1.61662   1.61956   1.62222
 Alpha virt. eigenvalues --    1.62546   1.62820   1.63116   1.63244   1.63394
 Alpha virt. eigenvalues --    1.63855   1.64123   1.64538   1.64609   1.64778
 Alpha virt. eigenvalues --    1.65104   1.65195   1.65317   1.65543   1.65918
 Alpha virt. eigenvalues --    1.66164   1.66299   1.66690   1.66951   1.67412
 Alpha virt. eigenvalues --    1.67491   1.67769   1.68238   1.68457   1.68626
 Alpha virt. eigenvalues --    1.69077   1.69431   1.69629   1.69658   1.70060
 Alpha virt. eigenvalues --    1.70268   1.70539   1.70680   1.71069   1.71170
 Alpha virt. eigenvalues --    1.71835   1.71886   1.72140   1.72439   1.72612
 Alpha virt. eigenvalues --    1.72875   1.73092   1.73316   1.73697   1.74175
 Alpha virt. eigenvalues --    1.74460   1.74680   1.75385   1.75608   1.76009
 Alpha virt. eigenvalues --    1.76232   1.76937   1.77526   1.77805   1.78253
 Alpha virt. eigenvalues --    1.78539   1.79111   1.79395   1.79769   1.80150
 Alpha virt. eigenvalues --    1.80652   1.81455   1.81467   1.81484   1.81689
 Alpha virt. eigenvalues --    1.81776   1.82589   1.82947   1.83227   1.83572
 Alpha virt. eigenvalues --    1.83666   1.84164   1.84294   1.84914   1.85071
 Alpha virt. eigenvalues --    1.85272   1.85734   1.85807   1.86304   1.86694
 Alpha virt. eigenvalues --    1.86858   1.87245   1.87307   1.87819   1.88428
 Alpha virt. eigenvalues --    1.88618   1.88861   1.89367   1.89689   1.90510
 Alpha virt. eigenvalues --    1.90784   1.91415   1.91743   1.91972   1.92151
 Alpha virt. eigenvalues --    1.92366   1.92633   1.93044   1.93121   1.93560
 Alpha virt. eigenvalues --    1.93632   1.94265   1.94465   1.94609   1.95001
 Alpha virt. eigenvalues --    1.95151   1.95840   1.96007   1.96535   1.96564
 Alpha virt. eigenvalues --    1.97028   1.97201   1.97617   1.97762   1.98163
 Alpha virt. eigenvalues --    1.98520   1.98790   1.99309   1.99534   1.99776
 Alpha virt. eigenvalues --    2.00235   2.00302   2.00644   2.01056   2.01373
 Alpha virt. eigenvalues --    2.01629   2.02076   2.02284   2.03002   2.03224
 Alpha virt. eigenvalues --    2.03774   2.03905   2.04252   2.04552   2.05086
 Alpha virt. eigenvalues --    2.05835   2.06168   2.06395   2.06786   2.07345
 Alpha virt. eigenvalues --    2.07837   2.08122   2.08159   2.08586   2.08666
 Alpha virt. eigenvalues --    2.08907   2.09165   2.09529   2.09928   2.10229
 Alpha virt. eigenvalues --    2.10607   2.10903   2.11189   2.11390   2.12080
 Alpha virt. eigenvalues --    2.12234   2.12394   2.12935   2.13157   2.13345
 Alpha virt. eigenvalues --    2.13873   2.14295   2.14586   2.14896   2.15148
 Alpha virt. eigenvalues --    2.15355   2.15452   2.16094   2.16405   2.16646
 Alpha virt. eigenvalues --    2.16925   2.17222   2.17712   2.18050   2.18344
 Alpha virt. eigenvalues --    2.18496   2.19127   2.19557   2.20003   2.20523
 Alpha virt. eigenvalues --    2.20780   2.20987   2.21506   2.21768   2.22507
 Alpha virt. eigenvalues --    2.22804   2.23057   2.23457   2.23512   2.24220
 Alpha virt. eigenvalues --    2.24475   2.25269   2.25624   2.25788   2.26622
 Alpha virt. eigenvalues --    2.26635   2.26888   2.27079   2.28027   2.28293
 Alpha virt. eigenvalues --    2.28811   2.29293   2.29709   2.29917   2.30233
 Alpha virt. eigenvalues --    2.30519   2.31011   2.31769   2.31888   2.32522
 Alpha virt. eigenvalues --    2.33148   2.33362   2.33470   2.33861   2.34231
 Alpha virt. eigenvalues --    2.34468   2.35022   2.35419   2.35486   2.35819
 Alpha virt. eigenvalues --    2.35899   2.36491   2.36680   2.37291   2.37624
 Alpha virt. eigenvalues --    2.37942   2.38007   2.38297   2.38710   2.38752
 Alpha virt. eigenvalues --    2.39482   2.39690   2.40004   2.40541   2.40770
 Alpha virt. eigenvalues --    2.41330   2.41440   2.41733   2.42131   2.42398
 Alpha virt. eigenvalues --    2.42567   2.43044   2.43236   2.43574   2.44134
 Alpha virt. eigenvalues --    2.44212   2.44656   2.44869   2.44921   2.45539
 Alpha virt. eigenvalues --    2.45879   2.46201   2.46342   2.46729   2.47483
 Alpha virt. eigenvalues --    2.48070   2.48352   2.48427   2.48719   2.49152
 Alpha virt. eigenvalues --    2.49391   2.49940   2.50041   2.50464   2.50837
 Alpha virt. eigenvalues --    2.51407   2.52129   2.52220   2.52863   2.53320
 Alpha virt. eigenvalues --    2.53534   2.53968   2.54208   2.54692   2.55179
 Alpha virt. eigenvalues --    2.55442   2.55907   2.56058   2.56143   2.56543
 Alpha virt. eigenvalues --    2.56865   2.57405   2.57694   2.57836   2.58334
 Alpha virt. eigenvalues --    2.58395   2.58624   2.59196   2.59410   2.59459
 Alpha virt. eigenvalues --    2.59959   2.60160   2.60700   2.60942   2.61454
 Alpha virt. eigenvalues --    2.61553   2.61907   2.62130   2.62436   2.62619
 Alpha virt. eigenvalues --    2.62814   2.63057   2.63580   2.63650   2.63865
 Alpha virt. eigenvalues --    2.64076   2.64590   2.64957   2.65187   2.65381
 Alpha virt. eigenvalues --    2.65473   2.65889   2.66227   2.66551   2.66954
 Alpha virt. eigenvalues --    2.67267   2.67469   2.67485   2.67753   2.68126
 Alpha virt. eigenvalues --    2.68239   2.68642   2.69311   2.69474   2.69941
 Alpha virt. eigenvalues --    2.70235   2.70391   2.70768   2.70834   2.71046
 Alpha virt. eigenvalues --    2.71463   2.71789   2.72027   2.72481   2.72540
 Alpha virt. eigenvalues --    2.72915   2.73194   2.73497   2.73721   2.74022
 Alpha virt. eigenvalues --    2.74474   2.74766   2.74997   2.75398   2.75423
 Alpha virt. eigenvalues --    2.75935   2.76184   2.76586   2.76761   2.76916
 Alpha virt. eigenvalues --    2.77481   2.77616   2.77997   2.78154   2.78466
 Alpha virt. eigenvalues --    2.78625   2.78864   2.79480   2.79696   2.80145
 Alpha virt. eigenvalues --    2.80395   2.80920   2.81194   2.81579   2.82067
 Alpha virt. eigenvalues --    2.82306   2.82442   2.82847   2.83052   2.83736
 Alpha virt. eigenvalues --    2.84037   2.84458   2.84611   2.84846   2.85215
 Alpha virt. eigenvalues --    2.85691   2.86025   2.86153   2.86404   2.86686
 Alpha virt. eigenvalues --    2.86885   2.87219   2.87850   2.88171   2.88664
 Alpha virt. eigenvalues --    2.88907   2.89022   2.89477   2.89690   2.89701
 Alpha virt. eigenvalues --    2.90134   2.90668   2.90873   2.91016   2.91622
 Alpha virt. eigenvalues --    2.91958   2.92280   2.92633   2.92898   2.93292
 Alpha virt. eigenvalues --    2.93662   2.93866   2.94040   2.94531   2.94615
 Alpha virt. eigenvalues --    2.94977   2.95313   2.96038   2.96238   2.96487
 Alpha virt. eigenvalues --    2.96952   2.97240   2.97611   2.97856   2.98046
 Alpha virt. eigenvalues --    2.98568   2.98748   2.99052   2.99302   2.99400
 Alpha virt. eigenvalues --    2.99915   3.00212   3.00475   3.01214   3.01577
 Alpha virt. eigenvalues --    3.02049   3.02173   3.02504   3.02661   3.02754
 Alpha virt. eigenvalues --    3.03715   3.03949   3.04410   3.04581   3.04687
 Alpha virt. eigenvalues --    3.04956   3.05395   3.05558   3.06055   3.06089
 Alpha virt. eigenvalues --    3.06308   3.06650   3.06669   3.07083   3.07341
 Alpha virt. eigenvalues --    3.07556   3.07825   3.08087   3.08267   3.08663
 Alpha virt. eigenvalues --    3.09007   3.09209   3.09532   3.09667   3.10195
 Alpha virt. eigenvalues --    3.10416   3.10542   3.10847   3.11076   3.11354
 Alpha virt. eigenvalues --    3.11589   3.11854   3.11890   3.12611   3.12784
 Alpha virt. eigenvalues --    3.13067   3.13243   3.13468   3.13540   3.14108
 Alpha virt. eigenvalues --    3.14316   3.14565   3.14763   3.14894   3.15189
 Alpha virt. eigenvalues --    3.15469   3.15780   3.16206   3.16472   3.16957
 Alpha virt. eigenvalues --    3.17049   3.17598   3.17858   3.17984   3.18225
 Alpha virt. eigenvalues --    3.18607   3.19047   3.19277   3.19397   3.19642
 Alpha virt. eigenvalues --    3.19811   3.19978   3.20296   3.20397   3.20577
 Alpha virt. eigenvalues --    3.20940   3.21256   3.21673   3.21851   3.22168
 Alpha virt. eigenvalues --    3.22349   3.22535   3.22650   3.22843   3.23200
 Alpha virt. eigenvalues --    3.23309   3.23542   3.24036   3.24070   3.24591
 Alpha virt. eigenvalues --    3.24625   3.24815   3.24958   3.25250   3.25736
 Alpha virt. eigenvalues --    3.25951   3.26078   3.26428   3.26556   3.26766
 Alpha virt. eigenvalues --    3.26957   3.27375   3.27619   3.27779   3.28146
 Alpha virt. eigenvalues --    3.28361   3.28433   3.28582   3.29092   3.29313
 Alpha virt. eigenvalues --    3.29574   3.29909   3.30176   3.30518   3.30647
 Alpha virt. eigenvalues --    3.30819   3.31169   3.31654   3.31801   3.31910
 Alpha virt. eigenvalues --    3.32005   3.32276   3.33065   3.33249   3.33408
 Alpha virt. eigenvalues --    3.33661   3.33950   3.34390   3.34642   3.34957
 Alpha virt. eigenvalues --    3.35089   3.35190   3.35544   3.35605   3.35832
 Alpha virt. eigenvalues --    3.35954   3.36275   3.36334   3.36581   3.36945
 Alpha virt. eigenvalues --    3.37004   3.37195   3.37549   3.37726   3.37787
 Alpha virt. eigenvalues --    3.38482   3.38657   3.38727   3.39202   3.39336
 Alpha virt. eigenvalues --    3.39594   3.40083   3.40338   3.40435   3.40609
 Alpha virt. eigenvalues --    3.40982   3.41168   3.41878   3.41963   3.42389
 Alpha virt. eigenvalues --    3.42730   3.42846   3.43203   3.43279   3.43522
 Alpha virt. eigenvalues --    3.43749   3.44200   3.44274   3.44537   3.44830
 Alpha virt. eigenvalues --    3.45519   3.45962   3.46314   3.46603   3.47030
 Alpha virt. eigenvalues --    3.47361   3.47418   3.47547   3.47942   3.48480
 Alpha virt. eigenvalues --    3.49065   3.49212   3.49425   3.49949   3.50132
 Alpha virt. eigenvalues --    3.50237   3.50473   3.50631   3.51037   3.51102
 Alpha virt. eigenvalues --    3.51477   3.52028   3.52139   3.52408   3.52646
 Alpha virt. eigenvalues --    3.52985   3.53188   3.53443   3.54062   3.54328
 Alpha virt. eigenvalues --    3.54602   3.54785   3.55264   3.55629   3.56120
 Alpha virt. eigenvalues --    3.56312   3.56674   3.56942   3.57373   3.57725
 Alpha virt. eigenvalues --    3.58034   3.58722   3.59023   3.59145   3.59521
 Alpha virt. eigenvalues --    3.59839   3.60067   3.60517   3.60883   3.61274
 Alpha virt. eigenvalues --    3.61388   3.61950   3.62148   3.62472   3.62811
 Alpha virt. eigenvalues --    3.63400   3.63621   3.63947   3.64432   3.64922
 Alpha virt. eigenvalues --    3.65101   3.65417   3.66028   3.66154   3.66614
 Alpha virt. eigenvalues --    3.67252   3.67327   3.67625   3.68073   3.68887
 Alpha virt. eigenvalues --    3.68955   3.69197   3.69766   3.70259   3.70436
 Alpha virt. eigenvalues --    3.70689   3.71095   3.71526   3.71816   3.72365
 Alpha virt. eigenvalues --    3.72621   3.72764   3.73199   3.73507   3.74030
 Alpha virt. eigenvalues --    3.74417   3.74673   3.75009   3.75045   3.75430
 Alpha virt. eigenvalues --    3.76087   3.76501   3.76943   3.77510   3.77861
 Alpha virt. eigenvalues --    3.78319   3.78781   3.79302   3.79846   3.80350
 Alpha virt. eigenvalues --    3.81281   3.81376   3.81901   3.82109   3.82500
 Alpha virt. eigenvalues --    3.82906   3.83040   3.83353   3.84133   3.84663
 Alpha virt. eigenvalues --    3.84997   3.85300   3.85610   3.86216   3.86433
 Alpha virt. eigenvalues --    3.87036   3.87595   3.88125   3.88654   3.88699
 Alpha virt. eigenvalues --    3.89014   3.90103   3.90226   3.90400   3.91405
 Alpha virt. eigenvalues --    3.91872   3.92114   3.92495   3.92765   3.93220
 Alpha virt. eigenvalues --    3.93561   3.93589   3.94300   3.94718   3.94830
 Alpha virt. eigenvalues --    3.95576   3.95703   3.95968   3.96674   3.97128
 Alpha virt. eigenvalues --    3.97644   3.97844   3.98080   3.98989   3.99621
 Alpha virt. eigenvalues --    4.00308   4.00758   4.01267   4.01885   4.02423
 Alpha virt. eigenvalues --    4.03257   4.03715   4.04218   4.04725   4.05123
 Alpha virt. eigenvalues --    4.05709   4.05975   4.06012   4.07005   4.07465
 Alpha virt. eigenvalues --    4.07853   4.08276   4.09191   4.09382   4.10109
 Alpha virt. eigenvalues --    4.10247   4.11511   4.11824   4.12032   4.12523
 Alpha virt. eigenvalues --    4.12889   4.13738   4.14708   4.15290   4.15692
 Alpha virt. eigenvalues --    4.16163   4.16292   4.16685   4.17343   4.17761
 Alpha virt. eigenvalues --    4.18082   4.18763   4.18997   4.19466   4.19839
 Alpha virt. eigenvalues --    4.20675   4.21625   4.21854   4.22231   4.22587
 Alpha virt. eigenvalues --    4.23206   4.23645   4.24427   4.25171   4.25294
 Alpha virt. eigenvalues --    4.25825   4.26054   4.26442   4.26771   4.27920
 Alpha virt. eigenvalues --    4.28469   4.28883   4.29165   4.30432   4.30918
 Alpha virt. eigenvalues --    4.31111   4.31383   4.32396   4.32463   4.33615
 Alpha virt. eigenvalues --    4.33849   4.34473   4.34938   4.35290   4.35817
 Alpha virt. eigenvalues --    4.35960   4.36589   4.36992   4.37556   4.38246
 Alpha virt. eigenvalues --    4.38712   4.38931   4.39410   4.39668   4.39966
 Alpha virt. eigenvalues --    4.40587   4.40700   4.41392   4.42092   4.42269
 Alpha virt. eigenvalues --    4.42674   4.43309   4.43774   4.44151   4.44664
 Alpha virt. eigenvalues --    4.45356   4.46140   4.46852   4.47687   4.48318
 Alpha virt. eigenvalues --    4.48938   4.49003   4.49759   4.50687   4.51192
 Alpha virt. eigenvalues --    4.51896   4.52238   4.53249   4.53536   4.54458
 Alpha virt. eigenvalues --    4.54692   4.55779   4.56130   4.56599   4.56957
 Alpha virt. eigenvalues --    4.57532   4.57811   4.58676   4.58999   4.59349
 Alpha virt. eigenvalues --    4.60366   4.61144   4.61564   4.62888   4.63865
 Alpha virt. eigenvalues --    4.64245   4.64802   4.65560   4.65812   4.66020
 Alpha virt. eigenvalues --    4.67223   4.67485   4.68350   4.69678   4.69773
 Alpha virt. eigenvalues --    4.70215   4.70709   4.71044   4.72034   4.72248
 Alpha virt. eigenvalues --    4.72909   4.73650   4.74962   4.75448   4.75946
 Alpha virt. eigenvalues --    4.76531   4.77177   4.77655   4.77925   4.78850
 Alpha virt. eigenvalues --    4.79999   4.80752   4.81200   4.81396   4.82539
 Alpha virt. eigenvalues --    4.83146   4.83624   4.85145   4.85779   4.86835
 Alpha virt. eigenvalues --    4.87334   4.87687   4.88055   4.88468   4.88901
 Alpha virt. eigenvalues --    4.89642   4.90500   4.90847   4.91316   4.92438
 Alpha virt. eigenvalues --    4.92585   4.92930   4.93196   4.94394   4.94883
 Alpha virt. eigenvalues --    4.95037   4.97235   4.97518   4.98805   4.99293
 Alpha virt. eigenvalues --    5.00164   5.02205   5.02871   5.03206   5.04039
 Alpha virt. eigenvalues --    5.04796   5.06126   5.07016   5.07090   5.08845
 Alpha virt. eigenvalues --    5.09420   5.09792   5.11564   5.12697   5.15221
 Alpha virt. eigenvalues --    5.15485   5.15961   5.16054   5.16979   5.18521
 Alpha virt. eigenvalues --    5.18705   5.19024   5.19260   5.19839   5.20391
 Alpha virt. eigenvalues --    5.21368   5.21724   5.22065   5.23187   5.23317
 Alpha virt. eigenvalues --    5.23543   5.24632   5.25978   5.26570   5.28454
 Alpha virt. eigenvalues --    5.28995   5.29816   5.30828   5.32309   5.32812
 Alpha virt. eigenvalues --    5.33408   5.34213   5.37113   5.37657   5.37778
 Alpha virt. eigenvalues --    5.40357   5.41558   5.42789   5.43104   5.43851
 Alpha virt. eigenvalues --    5.44457   5.44757   5.45558   5.45700   5.48815
 Alpha virt. eigenvalues --    5.49284   5.51358   5.52409   5.53290   5.54637
 Alpha virt. eigenvalues --    5.55563   5.56329   5.57136   5.57628   5.58010
 Alpha virt. eigenvalues --    5.58396   5.59752   5.61118   5.62462   5.62602
 Alpha virt. eigenvalues --    5.62876   5.65225   5.65803   5.70172   5.71887
 Alpha virt. eigenvalues --    5.74611   5.75226   5.77725   5.78464   5.79155
 Alpha virt. eigenvalues --    5.81111   5.84807   5.86903   5.88345   5.89730
 Alpha virt. eigenvalues --    5.91224   5.93273   5.94699   5.96328   5.97328
 Alpha virt. eigenvalues --    5.97586   5.98968   6.04108   6.05539   6.06523
 Alpha virt. eigenvalues --    6.06714   6.07142   6.10295   6.11119   6.11932
 Alpha virt. eigenvalues --    6.16696   6.17009   6.17476   6.23266   6.25242
 Alpha virt. eigenvalues --    6.25973   6.27002   6.29575   6.32855   6.33321
 Alpha virt. eigenvalues --    6.33430   6.40686   6.42908   6.45364   6.47510
 Alpha virt. eigenvalues --    6.49001   6.54032   6.63664   6.66525   6.73583
 Alpha virt. eigenvalues --    6.75826   6.82318   6.82544   6.88654   6.93100
 Alpha virt. eigenvalues --    6.98877   7.00105   7.09781   7.11663   7.13214
 Alpha virt. eigenvalues --    7.14150   7.29811   7.34054   9.17512   9.45487
 Alpha virt. eigenvalues --    9.60710  20.03894  22.32859  22.34618  22.43168
 Alpha virt. eigenvalues --   22.49522  22.51943  22.52309  22.55600  22.56503
 Alpha virt. eigenvalues --   22.56756  22.57233  22.61307  22.65944  22.67185
 Alpha virt. eigenvalues --   22.75191  22.76879  22.77863  22.79062  22.87886
 Alpha virt. eigenvalues --   22.90602  22.91696  22.92770  22.97119  23.01601
 Alpha virt. eigenvalues --   23.05086  23.09911  23.13207  23.14938  23.20297
 Alpha virt. eigenvalues --   23.24940  23.29219  23.34774  23.36277  23.45019
 Alpha virt. eigenvalues --   23.49868  23.52051  23.56522  23.57426  23.69685
 Alpha virt. eigenvalues --   23.74387  23.75178  23.87160  32.46014  32.78968
 Alpha virt. eigenvalues --   32.93700  32.98895  33.00981  33.10991  43.91966
 Alpha virt. eigenvalues --   43.92741  43.93715  43.95888
  Beta  occ. eigenvalues -- -256.47475 -89.04757 -30.20646 -26.03959 -26.03783
  Beta  occ. eigenvalues --  -26.03754 -19.27933 -19.27199 -19.19166 -19.18955
  Beta  occ. eigenvalues --  -14.46267 -14.41250 -14.40616 -14.40558 -14.40379
  Beta  occ. eigenvalues --  -14.40285 -10.36984 -10.36599 -10.30503 -10.28740
  Beta  occ. eigenvalues --  -10.28684 -10.28653 -10.28325 -10.28270 -10.28117
  Beta  occ. eigenvalues --  -10.27973 -10.27970 -10.27528 -10.25998 -10.25928
  Beta  occ. eigenvalues --  -10.25857 -10.25661 -10.25648 -10.25509 -10.25366
  Beta  occ. eigenvalues --  -10.25331 -10.25265 -10.25193 -10.25017 -10.24990
  Beta  occ. eigenvalues --  -10.24926 -10.24875 -10.24673 -10.24652 -10.24650
  Beta  occ. eigenvalues --  -10.24555 -10.24466 -10.24457 -10.24237 -10.24230
  Beta  occ. eigenvalues --  -10.24082 -10.23245 -10.22800 -10.22666 -10.22582
  Beta  occ. eigenvalues --  -10.22292 -10.21829  -8.02684  -5.96340  -5.96035
  Beta  occ. eigenvalues --   -5.95474  -3.49753  -2.24370  -2.24012  -2.23892
  Beta  occ. eigenvalues --   -1.18348  -1.18291  -1.08640  -1.03805  -1.03450
  Beta  occ. eigenvalues --   -1.02176  -1.00464  -1.00067  -0.98868  -0.93007
  Beta  occ. eigenvalues --   -0.86923  -0.86478  -0.86383  -0.85889  -0.85615
  Beta  occ. eigenvalues --   -0.85092  -0.83979  -0.83611  -0.82869  -0.81721
  Beta  occ. eigenvalues --   -0.81104  -0.79513  -0.78687  -0.78433  -0.78305
  Beta  occ. eigenvalues --   -0.76202  -0.74797  -0.74250  -0.74019  -0.73582
  Beta  occ. eigenvalues --   -0.71910  -0.71726  -0.71330  -0.69240  -0.68582
  Beta  occ. eigenvalues --   -0.68473  -0.66981  -0.66502  -0.66404  -0.64934
  Beta  occ. eigenvalues --   -0.64475  -0.64203  -0.62528  -0.62108  -0.60641
  Beta  occ. eigenvalues --   -0.58576  -0.58366  -0.57625  -0.57331  -0.56540
  Beta  occ. eigenvalues --   -0.55206  -0.54982  -0.54523  -0.53636  -0.53150
  Beta  occ. eigenvalues --   -0.52381  -0.52186  -0.51890  -0.51462  -0.51073
  Beta  occ. eigenvalues --   -0.50743  -0.50561  -0.50098  -0.49884  -0.49827
  Beta  occ. eigenvalues --   -0.49111  -0.48768  -0.48231  -0.47994  -0.47725
  Beta  occ. eigenvalues --   -0.47326  -0.47132  -0.46923  -0.46670  -0.46375
  Beta  occ. eigenvalues --   -0.46227  -0.46050  -0.45689  -0.45544  -0.45215
  Beta  occ. eigenvalues --   -0.44963  -0.44847  -0.44689  -0.44325  -0.44120
  Beta  occ. eigenvalues --   -0.44001  -0.43853  -0.43796  -0.43145  -0.42809
  Beta  occ. eigenvalues --   -0.42701  -0.42402  -0.42233  -0.42179  -0.41734
  Beta  occ. eigenvalues --   -0.41549  -0.41444  -0.41211  -0.40904  -0.40689
  Beta  occ. eigenvalues --   -0.40518  -0.40365  -0.39986  -0.39793  -0.39589
  Beta  occ. eigenvalues --   -0.39262  -0.38886  -0.38792  -0.38485  -0.38398
  Beta  occ. eigenvalues --   -0.38174  -0.37670  -0.37432  -0.37131  -0.36996
  Beta  occ. eigenvalues --   -0.35933  -0.35715  -0.35433  -0.35216  -0.34196
  Beta  occ. eigenvalues --   -0.33645  -0.33122  -0.31190  -0.31047  -0.29639
  Beta  occ. eigenvalues --   -0.29459  -0.29274  -0.28950  -0.28250  -0.27368
  Beta  occ. eigenvalues --   -0.26696  -0.26224  -0.26031  -0.25176  -0.22251
  Beta  occ. eigenvalues --   -0.21900
  Beta virt. eigenvalues --   -0.13109  -0.12943  -0.11105  -0.08759  -0.08638
  Beta virt. eigenvalues --   -0.06872  -0.05004  -0.04343  -0.03472  -0.02347
  Beta virt. eigenvalues --   -0.01337  -0.00321   0.00139   0.01015   0.01396
  Beta virt. eigenvalues --    0.01416   0.02498   0.02970   0.03202   0.03304
  Beta virt. eigenvalues --    0.03989   0.04203   0.04235   0.04526   0.04810
  Beta virt. eigenvalues --    0.05236   0.05499   0.05728   0.06026   0.06587
  Beta virt. eigenvalues --    0.06864   0.06984   0.07305   0.07628   0.07745
  Beta virt. eigenvalues --    0.07868   0.08096   0.08478   0.08845   0.09095
  Beta virt. eigenvalues --    0.09370   0.09455   0.09769   0.10074   0.10308
  Beta virt. eigenvalues --    0.10438   0.10592   0.10822   0.10930   0.11238
  Beta virt. eigenvalues --    0.11386   0.11605   0.11997   0.12096   0.12166
  Beta virt. eigenvalues --    0.12427   0.12480   0.12718   0.12824   0.13002
  Beta virt. eigenvalues --    0.13219   0.13282   0.13586   0.13814   0.14009
  Beta virt. eigenvalues --    0.14075   0.14344   0.14473   0.14604   0.14850
  Beta virt. eigenvalues --    0.14947   0.15236   0.15399   0.15535   0.15625
  Beta virt. eigenvalues --    0.15883   0.16278   0.16341   0.16548   0.16877
  Beta virt. eigenvalues --    0.16954   0.17256   0.17622   0.17872   0.17920
  Beta virt. eigenvalues --    0.18399   0.18485   0.18557   0.18710   0.18903
  Beta virt. eigenvalues --    0.18992   0.19160   0.19472   0.19686   0.19866
  Beta virt. eigenvalues --    0.19950   0.20128   0.20545   0.20693   0.20885
  Beta virt. eigenvalues --    0.21124   0.21311   0.21506   0.21724   0.21764
  Beta virt. eigenvalues --    0.22005   0.22184   0.22475   0.22775   0.23054
  Beta virt. eigenvalues --    0.23153   0.23343   0.23457   0.23803   0.23877
  Beta virt. eigenvalues --    0.23989   0.24116   0.24433   0.24541   0.24857
  Beta virt. eigenvalues --    0.25133   0.25212   0.25606   0.25891   0.26076
  Beta virt. eigenvalues --    0.26296   0.26606   0.26914   0.27168   0.27441
  Beta virt. eigenvalues --    0.27727   0.27972   0.28137   0.28295   0.28414
  Beta virt. eigenvalues --    0.28717   0.28920   0.29241   0.29526   0.29615
  Beta virt. eigenvalues --    0.29879   0.30087   0.30386   0.30577   0.30695
  Beta virt. eigenvalues --    0.30799   0.31119   0.31258   0.31417   0.31851
  Beta virt. eigenvalues --    0.31918   0.32156   0.32340   0.32650   0.32927
  Beta virt. eigenvalues --    0.33224   0.33394   0.33514   0.33593   0.34215
  Beta virt. eigenvalues --    0.34393   0.34552   0.34652   0.34961   0.35274
  Beta virt. eigenvalues --    0.35398   0.35578   0.35868   0.36029   0.36190
  Beta virt. eigenvalues --    0.36539   0.36718   0.36869   0.37002   0.37091
  Beta virt. eigenvalues --    0.37366   0.37620   0.37834   0.37954   0.38226
  Beta virt. eigenvalues --    0.38416   0.38606   0.38931   0.39046   0.39299
  Beta virt. eigenvalues --    0.39422   0.39707   0.39932   0.39973   0.40175
  Beta virt. eigenvalues --    0.40398   0.40681   0.40772   0.41038   0.41301
  Beta virt. eigenvalues --    0.41469   0.41481   0.41697   0.41815   0.41915
  Beta virt. eigenvalues --    0.42092   0.42227   0.42469   0.42628   0.42784
  Beta virt. eigenvalues --    0.43018   0.43117   0.43391   0.43495   0.43717
  Beta virt. eigenvalues --    0.43787   0.43910   0.44193   0.44332   0.44560
  Beta virt. eigenvalues --    0.44736   0.44758   0.44990   0.45095   0.45369
  Beta virt. eigenvalues --    0.45624   0.45648   0.45916   0.46036   0.46162
  Beta virt. eigenvalues --    0.46435   0.46598   0.46771   0.46963   0.47070
  Beta virt. eigenvalues --    0.47327   0.47411   0.47796   0.47962   0.48077
  Beta virt. eigenvalues --    0.48339   0.48487   0.48584   0.48756   0.48916
  Beta virt. eigenvalues --    0.48960   0.49021   0.49157   0.49257   0.49567
  Beta virt. eigenvalues --    0.49612   0.49733   0.50029   0.50169   0.50302
  Beta virt. eigenvalues --    0.50630   0.50745   0.50875   0.50889   0.51184
  Beta virt. eigenvalues --    0.51308   0.51344   0.51578   0.51809   0.51996
  Beta virt. eigenvalues --    0.52176   0.52407   0.52627   0.52810   0.53065
  Beta virt. eigenvalues --    0.53328   0.53341   0.53647   0.53954   0.54044
  Beta virt. eigenvalues --    0.54337   0.54430   0.54719   0.54770   0.54985
  Beta virt. eigenvalues --    0.55170   0.55382   0.55614   0.55764   0.55966
  Beta virt. eigenvalues --    0.56278   0.56451   0.56582   0.56940   0.57200
  Beta virt. eigenvalues --    0.57350   0.57668   0.57845   0.58021   0.58117
  Beta virt. eigenvalues --    0.58427   0.58668   0.59104   0.59159   0.59443
  Beta virt. eigenvalues --    0.59623   0.59864   0.59936   0.60475   0.60759
  Beta virt. eigenvalues --    0.60968   0.61227   0.61563   0.61608   0.61683
  Beta virt. eigenvalues --    0.62046   0.62334   0.62644   0.62777   0.63104
  Beta virt. eigenvalues --    0.63179   0.63627   0.63772   0.63996   0.64084
  Beta virt. eigenvalues --    0.64358   0.64895   0.65090   0.65249   0.65495
  Beta virt. eigenvalues --    0.65829   0.65928   0.66491   0.66685   0.66895
  Beta virt. eigenvalues --    0.67138   0.67526   0.67958   0.68131   0.68538
  Beta virt. eigenvalues --    0.69024   0.69328   0.69468   0.69739   0.69758
  Beta virt. eigenvalues --    0.70331   0.70478   0.70557   0.70621   0.70844
  Beta virt. eigenvalues --    0.71032   0.71325   0.71502   0.71966   0.72232
  Beta virt. eigenvalues --    0.72501   0.73078   0.73226   0.73838   0.73938
  Beta virt. eigenvalues --    0.74122   0.74713   0.74937   0.75175   0.75476
  Beta virt. eigenvalues --    0.76079   0.76185   0.76523   0.76683   0.76860
[...]
              Bcc     0.0095     1.269     0.453     0.423  0.8730  0.4804  0.0845
 
              Baa    -0.0126    -1.691    -0.603    -0.564  0.9470 -0.2936  0.1305
    37 C(13)  Bbb    -0.0006    -0.076    -0.027    -0.025 -0.2014 -0.2260  0.9531
              Bcc     0.0132     1.767     0.630     0.589  0.2504  0.9288  0.2732
 
              Baa    -0.0089    -1.200    -0.428    -0.400 -0.6242  0.1638  0.7639
    38 C(13)  Bbb    -0.0036    -0.479    -0.171    -0.160 -0.2181  0.9024 -0.3717
              Bcc     0.0125     1.679     0.599     0.560  0.7502  0.3987  0.5275
 
              Baa    -0.0318    -4.274    -1.525    -1.426  0.9208  0.2829  0.2686
    39 C(13)  Bbb    -0.0185    -2.487    -0.887    -0.830 -0.1793 -0.3046  0.9354
              Bcc     0.0504     6.760     2.412     2.255 -0.3465  0.9095  0.2298
 
              Baa    -0.0170    -2.280    -0.813    -0.760  0.7013  0.6549  0.2816
    40 C(13)  Bbb     0.0029     0.387     0.138     0.129 -0.1091 -0.2918  0.9503
              Bcc     0.0141     1.893     0.675     0.631  0.7045 -0.6971 -0.1332
 
              Baa    -0.0191    -2.557    -0.912    -0.853  0.5883  0.7743  0.2331
    41 C(13)  Bbb     0.0056     0.751     0.268     0.250  0.0361 -0.3132  0.9490
              Bcc     0.0135     1.807     0.645     0.603  0.8079 -0.5499 -0.2122
 
              Baa    -0.0315    -4.224    -1.507    -1.409  0.2185  0.9755 -0.0262
    42 C(13)  Bbb    -0.0219    -2.939    -1.049    -0.980  0.0461  0.0165  0.9988
              Bcc     0.0534     7.163     2.556     2.389  0.9747 -0.2195 -0.0413
 
              Baa    -0.0049    -0.653    -0.233    -0.218  0.8570  0.4771  0.1950
    43 C(13)  Bbb    -0.0042    -0.564    -0.201    -0.188 -0.0540 -0.2931  0.9546
              Bcc     0.0091     1.217     0.434     0.406 -0.5125  0.8286  0.2254
 
              Baa    -0.0048    -0.644    -0.230    -0.215  0.3529  0.9348  0.0401
    44 C(13)  Bbb    -0.0045    -0.609    -0.217    -0.203  0.0246 -0.0521  0.9983
              Bcc     0.0093     1.253     0.447     0.418  0.9354 -0.3513 -0.0414
 
              Baa    -0.0040    -0.532    -0.190    -0.177  0.4204  0.8032 -0.4220
    45 C(13)  Bbb    -0.0026    -0.349    -0.125    -0.116 -0.0922  0.5005  0.8608
              Bcc     0.0066     0.881     0.314     0.294  0.9026 -0.3230  0.2845
 
              Baa    -0.0018    -0.247    -0.088    -0.082  0.1917  0.7857  0.5882
    46 C(13)  Bbb    -0.0018    -0.236    -0.084    -0.079 -0.3190 -0.5169  0.7944
              Bcc     0.0036     0.483     0.172     0.161  0.9282 -0.3399  0.1516
 
              Baa    -0.0019     0.134     0.048     0.045  0.2282  0.8798 -0.4170
    47 O(17)  Bbb    -0.0013     0.093     0.033     0.031  0.1240  0.3986  0.9087
              Bcc     0.0031    -0.227    -0.081    -0.076  0.9657 -0.2591 -0.0181
 
              Baa    -0.0013     0.097     0.035     0.032 -0.3948 -0.4268  0.8136
    48 O(17)  Bbb    -0.0012     0.087     0.031     0.029  0.3052  0.7743  0.5543
              Bcc     0.0025    -0.184    -0.066    -0.061  0.8666 -0.4671  0.1754
 
              Baa    -0.1675    -6.458    -2.304    -2.154  0.7615 -0.6422 -0.0879
    49 N(14)  Bbb    -0.1144    -4.414    -1.575    -1.472 -0.0095 -0.1467  0.9891
              Bcc     0.2819    10.872     3.880     3.627  0.6481  0.7524  0.1178
 
              Baa    -0.1729    -6.670    -2.380    -2.225  0.6231  0.7805 -0.0505
    50 N(14)  Bbb    -0.0972    -3.748    -1.337    -1.250  0.1869 -0.0859  0.9786
              Bcc     0.2701    10.418     3.717     3.475  0.7595 -0.6192 -0.1994
 
              Baa    -0.1762    -6.797    -2.425    -2.267  0.7204 -0.5611 -0.4076
    51 N(14)  Bbb    -0.1139    -4.393    -1.568    -1.465  0.2090 -0.3847  0.8991
              Bcc     0.2902    11.191     3.993     3.733  0.6613  0.7329  0.1599
 
              Baa    -0.1767    -6.816    -2.432    -2.273  0.6430  0.7041  0.3011
    52 N(14)  Bbb    -0.1095    -4.222    -1.507    -1.408 -0.0866 -0.3238  0.9421
              Bcc     0.2862    11.038     3.939     3.682  0.7609 -0.6319 -0.1472
 
              Baa    -0.2139    -3.704    -1.322    -1.235  0.1258 -0.2469  0.9609
    53 Fe(57) Bbb     0.0851     1.473     0.526     0.491  0.9904 -0.0254 -0.1361
              Bcc     0.1288     2.231     0.796     0.744  0.0580  0.9687  0.2413
 
              Baa    -0.0010    -0.547    -0.195    -0.183  0.1240 -0.1812  0.9756
    54 H(1)   Bbb    -0.0010    -0.538    -0.192    -0.179 -0.3151  0.9251  0.2118
              Bcc     0.0020     1.085     0.387     0.362  0.9409  0.3336 -0.0576
 
              Baa    -0.0027    -1.465    -0.523    -0.489 -0.6455  0.7449 -0.1690
    55 H(1)   Bbb    -0.0027    -1.426    -0.509    -0.476  0.1453  0.3370  0.9302
              Bcc     0.0054     2.891     1.032     0.964  0.7498  0.5758 -0.3258
 
              Baa    -0.0041    -2.181    -0.778    -0.727  0.4741 -0.4897  0.7317
    56 H(1)   Bbb    -0.0038    -2.008    -0.717    -0.670 -0.0972  0.7969  0.5963
              Bcc     0.0079     4.189     1.495     1.397  0.8751  0.3538 -0.3302
 
              Baa    -0.0038    -2.041    -0.728    -0.681 -0.1529  0.0699  0.9858
    57 H(1)   Bbb    -0.0034    -1.815    -0.648    -0.605 -0.3622  0.9241 -0.1217
              Bcc     0.0072     3.856     1.376     1.286  0.9195  0.3756  0.1160
 
              Baa    -0.0030    -1.609    -0.574    -0.537  0.1390 -0.2731  0.9519
    58 H(1)   Bbb    -0.0028    -1.487    -0.531    -0.496 -0.6055  0.7372  0.2999
              Bcc     0.0058     3.096     1.105     1.033  0.7836  0.6180  0.0629
 
              Baa    -0.0030    -1.626    -0.580    -0.542  0.1733 -0.2306  0.9575
    59 H(1)   Bbb    -0.0028    -1.505    -0.537    -0.502  0.8515 -0.4534 -0.2634
              Bcc     0.0059     3.132     1.117     1.045  0.4949  0.8609  0.1178
 
              Baa    -0.0037    -1.983    -0.707    -0.661  0.6224 -0.4821  0.6166
    60 H(1)   Bbb    -0.0034    -1.795    -0.640    -0.599  0.7136  0.0257 -0.7001
              Bcc     0.0071     3.777     1.348     1.260  0.3217  0.8758  0.3600
 
              Baa    -0.0039    -2.055    -0.733    -0.686 -0.1738 -0.0174  0.9846
    61 H(1)   Bbb    -0.0034    -1.805    -0.644    -0.602  0.9565 -0.2408  0.1646
              Bcc     0.0072     3.861     1.378     1.288  0.2342  0.9704  0.0585
 
              Baa    -0.0085    -4.512    -1.610    -1.505  0.0715 -0.1642  0.9838
    62 H(1)   Bbb    -0.0073    -3.872    -1.381    -1.291  0.9933  0.1011 -0.0554
              Bcc     0.0157     8.384     2.992     2.797 -0.0903  0.9812  0.1703
 
              Baa    -0.0043    -2.273    -0.811    -0.758  0.1896 -0.0621  0.9799
    63 H(1)   Bbb    -0.0037    -1.990    -0.710    -0.664  0.9131  0.3781 -0.1527
              Bcc     0.0080     4.263     1.521     1.422 -0.3610  0.9237  0.1284
 
              Baa    -0.0033    -1.763    -0.629    -0.588  0.6854  0.1829  0.7048
    64 H(1)   Bbb    -0.0031    -1.661    -0.593    -0.554 -0.4872 -0.6042  0.6305
              Bcc     0.0064     3.424     1.222     1.142 -0.5412  0.7756  0.3250
 
              Baa    -0.0033    -1.764    -0.629    -0.588 -0.5049 -0.3839  0.7731
    65 H(1)   Bbb    -0.0032    -1.723    -0.615    -0.575  0.6138  0.4701  0.6343
              Bcc     0.0065     3.487     1.244     1.163 -0.6069  0.7948 -0.0017
 
              Baa    -0.0029    -1.535    -0.548    -0.512 -0.0069 -0.7023  0.7118
    66 H(1)   Bbb    -0.0021    -1.138    -0.406    -0.380  0.6629  0.5298  0.5291
              Bcc     0.0050     2.674     0.954     0.892  0.7487 -0.4755 -0.4619
 
              Baa    -0.0025    -1.320    -0.471    -0.440  0.3638  0.2446  0.8988
    67 H(1)   Bbb    -0.0017    -0.906    -0.323    -0.302  0.0870  0.9518 -0.2943
              Bcc     0.0042     2.226     0.794     0.743  0.9274 -0.1853 -0.3250
 
              Baa    -0.0037    -1.951    -0.696    -0.651 -0.1228 -0.6092  0.7835
    68 H(1)   Bbb    -0.0034    -1.838    -0.656    -0.613  0.2444  0.7466  0.6188
              Bcc     0.0071     3.789     1.352     1.264  0.9619 -0.2675 -0.0572
 
              Baa    -0.0087    -4.653    -1.660    -1.552  0.1441 -0.2700  0.9520
    69 H(1)   Bbb    -0.0071    -3.786    -1.351    -1.263 -0.0813  0.9556  0.2833
              Bcc     0.0158     8.440     3.011     2.815  0.9862  0.1182 -0.1157
 
              Baa    -0.0041    -2.210    -0.788    -0.737 -0.2381  0.0880  0.9673
    70 H(1)   Bbb    -0.0036    -1.913    -0.683    -0.638 -0.3221  0.9324 -0.1641
              Bcc     0.0077     4.123     1.471     1.375  0.9163  0.3506  0.1937
 
              Baa    -0.0038    -2.005    -0.715    -0.669  0.4220 -0.6215  0.6600
    71 H(1)   Bbb    -0.0033    -1.773    -0.633    -0.591 -0.2436  0.6235  0.7429
              Bcc     0.0071     3.778     1.348     1.260  0.8733  0.4742 -0.1117
 
              Baa    -0.0032    -1.693    -0.604    -0.565 -0.0927 -0.1372  0.9862
    72 H(1)   Bbb    -0.0029    -1.551    -0.553    -0.517 -0.6241  0.7798  0.0498
              Bcc     0.0061     3.244     1.157     1.082  0.7758  0.6109  0.1579
 
              Baa    -0.0025    -1.308    -0.467    -0.436 -0.2510 -0.1631  0.9541
    73 H(1)   Bbb    -0.0016    -0.832    -0.297    -0.278  0.9414 -0.2705  0.2014
              Bcc     0.0040     2.140     0.764     0.714  0.2253  0.9488  0.2215
 
              Baa    -0.0027    -1.417    -0.506    -0.473  0.6739 -0.4272  0.6028
    74 H(1)   Bbb    -0.0018    -0.970    -0.346    -0.323 -0.4953  0.3442  0.7976
              Bcc     0.0045     2.386     0.852     0.796  0.5482  0.8361 -0.0203
 
              Baa    -0.0038    -2.028    -0.724    -0.677  0.6052 -0.5450  0.5803
    75 H(1)   Bbb    -0.0036    -1.930    -0.689    -0.644  0.7166  0.0554 -0.6953
              Bcc     0.0074     3.958     1.412     1.320  0.3468  0.8366  0.4241
 
              Baa    -0.0080    -4.291    -1.531    -1.431  0.0354 -0.3178  0.9475
    76 H(1)   Bbb    -0.0065    -3.482    -1.242    -1.161  0.9968  0.0788 -0.0108
              Bcc     0.0146     7.773     2.774     2.593 -0.0712  0.9449  0.3196
 
              Baa    -0.0033    -1.765    -0.630    -0.589  0.8182  0.5716  0.0621
    77 H(1)   Bbb    -0.0032    -1.702    -0.607    -0.568  0.1833 -0.3617  0.9141
              Bcc     0.0065     3.468     1.237     1.157 -0.5450  0.7365  0.4007
 
              Baa    -0.0040    -2.118    -0.756    -0.707  0.0033 -0.2175  0.9761
    78 H(1)   Bbb    -0.0035    -1.863    -0.665    -0.621  0.9326  0.3529  0.0755
              Bcc     0.0075     3.981     1.421     1.328 -0.3608  0.9100  0.2040
 
              Baa    -0.0031    -1.678    -0.599    -0.560 -0.3967 -0.3958  0.8282
    79 H(1)   Bbb    -0.0029    -1.566    -0.559    -0.522  0.6882  0.4688  0.5537
              Bcc     0.0061     3.244     1.158     1.082 -0.6075  0.7896  0.0864
 
              Baa    -0.0086    -4.606    -1.644    -1.536  0.0328 -0.1778  0.9835
    80 H(1)   Bbb    -0.0072    -3.857    -1.376    -1.287 -0.0782  0.9806  0.1799
              Bcc     0.0159     8.463     3.020     2.823  0.9964  0.0828 -0.0183
 
              Baa    -0.0040    -2.121    -0.757    -0.707  0.1260 -0.0667  0.9898
    81 H(1)   Bbb    -0.0035    -1.872    -0.668    -0.624  0.2091  0.9771  0.0392
              Bcc     0.0075     3.992     1.425     1.332  0.9697 -0.2021 -0.1370
 
              Baa    -0.0031    -1.658    -0.592    -0.553 -0.0851 -0.4074  0.9093
    82 H(1)   Bbb    -0.0029    -1.543    -0.550    -0.515  0.4857  0.7799  0.3949
              Bcc     0.0060     3.201     1.142     1.068  0.8700 -0.4752 -0.1315
 
              Baa    -0.0040    -2.160    -0.771    -0.721 -0.3653 -0.6112  0.7021
    83 H(1)   Bbb    -0.0037    -1.961    -0.700    -0.654 -0.0143  0.7578  0.6523
              Bcc     0.0077     4.121     1.471     1.375  0.9308 -0.2282  0.2855
 
              Baa    -0.0036    -1.921    -0.686    -0.641  0.4647  0.8644  0.1919
    84 H(1)   Bbb    -0.0033    -1.764    -0.629    -0.588 -0.3532 -0.0178  0.9354
              Bcc     0.0069     3.685     1.315     1.229  0.8120 -0.5025  0.2970
 
              Baa    -0.0010    -0.527    -0.188    -0.176 -0.3424 -0.4262  0.8373
    85 H(1)   Bbb    -0.0010    -0.522    -0.186    -0.174  0.3380  0.7756  0.5331
              Bcc     0.0020     1.048     0.374     0.350  0.8767 -0.4655  0.1215
 
              Baa    -0.0140    -7.478    -2.668    -2.494  0.6592  0.7486  0.0712
    86 H(1)   Bbb    -0.0119    -6.359    -2.269    -2.121 -0.4167  0.2848  0.8633
              Bcc     0.0259    13.837     4.937     4.616  0.6260 -0.5987  0.4997
 
              Baa    -0.0081    -4.312    -1.539    -1.438  0.9219  0.3862  0.0294
    87 H(1)   Bbb    -0.0073    -3.887    -1.387    -1.297 -0.2577  0.5550  0.7910
              Bcc     0.0154     8.199     2.926     2.735 -0.2892  0.7368 -0.6112
 
              Baa    -0.0052    -2.800    -0.999    -0.934  0.6324  0.7684  0.0978
    88 H(1)   Bbb    -0.0046    -2.465    -0.880    -0.822 -0.5444  0.3511  0.7618
              Bcc     0.0099     5.265     1.879     1.756  0.5511 -0.5350  0.6404
 
              Baa    -0.0109    -5.799    -2.069    -1.934 -0.4890  0.7709  0.4082
    89 H(1)   Bbb    -0.0089    -4.730    -1.688    -1.578  0.6777  0.6303 -0.3787
              Bcc     0.0197    10.529     3.757     3.512  0.5493 -0.0914  0.8306
 
              Baa    -0.0083    -4.410    -1.574    -1.471  0.2091  0.9382  0.2758
    90 H(1)   Bbb    -0.0055    -2.933    -1.047    -0.978  0.9587 -0.1412 -0.2468
              Bcc     0.0138     7.344     2.620     2.450  0.1926 -0.3160  0.9290
 
              Baa    -0.0125    -6.679    -2.383    -2.228  0.9801 -0.1969 -0.0262
    91 H(1)   Bbb    -0.0115    -6.124    -2.185    -2.043  0.1654  0.8820 -0.4412
              Bcc     0.0240    12.803     4.569     4.271  0.1100  0.4281  0.8970
 
              Baa    -0.0085    -4.528    -1.616    -1.510  0.9304  0.3515  0.1037
    92 H(1)   Bbb    -0.0070    -3.721    -1.328    -1.241 -0.3276  0.9245 -0.1947
              Bcc     0.0155     8.248     2.943     2.751 -0.1643  0.1471  0.9754
 
              Baa    -0.0167    -8.926    -3.185    -2.977  0.7110  0.7021 -0.0382
    93 H(1)   Bbb    -0.0144    -7.673    -2.738    -2.560  0.6131 -0.5924  0.5226
              Bcc     0.0311    16.599     5.923     5.537 -0.3443  0.3950  0.8517
 
              Baa    -0.0033    -1.744    -0.622    -0.582 -0.6057  0.6340  0.4808
    94 H(1)   Bbb    -0.0031    -1.655    -0.591    -0.552  0.7635  0.6333  0.1265
              Bcc     0.0064     3.399     1.213     1.134  0.2243 -0.4437  0.8676
 
              Baa    -0.0040    -2.139    -0.763    -0.713  0.4020  0.9020  0.1572
    95 H(1)   Bbb    -0.0037    -1.973    -0.704    -0.658  0.7657 -0.2371 -0.5978
              Bcc     0.0077     4.112     1.467     1.372  0.5020 -0.3607  0.7861
 
              Baa    -0.0032    -1.695    -0.605    -0.565  0.9432  0.0987 -0.3173
    96 H(1)   Bbb    -0.0030    -1.621    -0.578    -0.541 -0.0399  0.9816  0.1867
              Bcc     0.0062     3.316     1.183     1.106  0.3299 -0.1634  0.9298
 
              Baa    -0.0058    -3.091    -1.103    -1.031  0.4343  0.8628  0.2586
    97 H(1)   Bbb    -0.0054    -2.887    -1.030    -0.963  0.8793 -0.4684  0.0862
              Bcc     0.0112     5.978     2.133     1.994 -0.1955 -0.1900  0.9621
 
              Baa    -0.0180    -9.624    -3.434    -3.210  0.2892  0.9302  0.2262
    98 H(1)   Bbb    -0.0164    -8.776    -3.131    -2.927  0.7692 -0.3664  0.5236
              Bcc     0.0345    18.400     6.566     6.138 -0.5699 -0.0226  0.8214
 
              Baa    -0.0212   -11.320    -4.039    -3.776  0.4174  0.9063 -0.0658
    99 H(1)   Bbb    -0.0196   -10.436    -3.724    -3.481 -0.5826  0.3225  0.7461
              Bcc     0.0408    21.757     7.763     7.257  0.6974 -0.2731  0.6626
 

 ---------------------------------------------------------------------------------

 1\1\GINC-NODE620\SP\UPBE1PBE\def2TZVP\C41H46Fe1N6O4S1(1+,6)\ZHARTOVSKA
 \27-Jan-2023\0\\# PBE1PBE/def2TZVP empiricaldispersion=GD3BJ int=(grid
 =ultrafine) geom=check guess=read scrf=(smd,solvent=Chloroform)\\1c6r_
 III_H_solv\\1,6\C,0,8.89,8.219,4.835\C,0,8.542,9.673,4.721\N,0,9.424,1
 0.61,4.23\C,0,7.431,10.356,5.086\C,0,8.878,11.811,4.304\N,0,7.668,11.6
 84,4.819\C,0,4.888,17.037001,4.584\C,0,4.631,16.620001,6.026\S,0,4.631
 ,14.848,6.261\C,0,4.365,14.756,8.063\C,0,8.735,15.487,5.374\C,0,7.2,12
 .459,8.761\C,0,3.75,11.022,5.782\C,0,5.717,13.521,2.146\C,0,8.67,14.77
 9,6.56\C,0,9.56,14.991,7.706\C,0,9.051,14.192,8.704\C,0,7.94,13.454,8.
 12\C,0,9.493,14.114,10.165\C,0,10.815,15.92,7.701\C,0,11.998,15.412,6.
 85\C,0,13.116,16.438999,6.68\O,0,14.251,16.030001,6.325\O,0,12.866,17.
 65,6.869\C,0,6.098,11.782,8.238\C,0,5.333,10.788,8.931\C,0,4.295,10.44
 2,8.131\C,0,4.479,11.225,6.939\C,0,5.678,10.242,10.31\C,0,3.22,9.557,8
 .391\C,0,2.224,9.871,9.331\C,0,4.,11.535,4.54\C,0,3.264,11.197,3.338\C
 ,0,3.857,11.84,2.313\C,0,4.947,12.6,2.87\C,0,2.19,10.125,3.253\C,0,3.6
 25,11.653,0.936\C,0,2.443,12.128,0.328\C,0,6.634,14.375,2.733\C,0,7.32
 4,15.495,2.068\C,0,8.118,16.086,2.995\C,0,7.947,15.317,4.238\C,0,7.232
 ,15.862,0.614\C,0,9.001,17.297001,2.816\C,0,8.309,18.487,3.442\C,0,8.9
 67,19.802999,3.062\O,0,9.935,20.219999,3.735\O,0,8.548,20.422001,2.068
 \N,0,7.704,13.845,6.815\N,0,5.584,12.017,7.002\N,0,5.036,12.387,4.26\N
 ,0,6.991,14.326,4.102\Fe,0,6.33,13.14,5.558\H,0,13.58468023,18.2788609
 7,6.96714585\H,0,12.40431272,14.5390858,7.31672344\H,0,11.63122057,15.
 14310058,5.88146195\H,0,10.52155682,16.87983182,7.33017123\H,0,11.1517
 5042,16.03592022,8.70999042\H,0,10.43246649,14.61295289,10.28053668\H,
 0,8.75982497,14.58601378,10.78512689\H,0,9.59614573,13.08842677,10.452
 15936\H,0,7.50791538,12.18931582,9.74961447\H,0,6.60974084,10.65596075
 ,10.63464673\H,0,4.90787415,10.51022619,11.00271992\H,0,5.7588075,9.17
 615311,10.26162065\H,0,2.44773403,10.52173565,10.15038159\H,0,1.241782
 62,9.45938383,9.22745699\H,0,3.16527293,8.62954242,7.86022002\H,0,2.89
 076353,10.39027893,5.86883994\H,0,2.55611562,9.21811778,3.68707832\H,0
 ,1.31980188,10.44899944,3.78467621\H,0,1.93795875,9.95316709,2.2274032
 7\H,0,2.4623702,12.4673844,-0.68656544\H,0,1.52762269,12.14868727,0.88
 167537\H,0,4.35527065,11.14361116,0.34259644\H,0,5.5890079,13.56591299
 ,1.08463256\H,0,8.08217155,15.47315201,0.0935141\H,0,6.33814784,15.446
 96689,0.19725567\H,0,7.2101597,16.92725257,0.51571492\H,0,9.47769304,1
 6.25556691,5.32289285\H,0,9.94166855,17.13191877,3.29848372\H,0,9.1574
 2727,17.47828317,1.77313506\H,0,8.33418803,18.38182338,4.50652029\H,0,
 7.28899129,18.50382819,3.11920122\H,0,9.16906913,20.80896693,1.4466059
 9\H,0,5.80931057,16.60915603,4.24779245\H,0,4.0870674,16.69106919,3.96
 453398\H,0,4.94818898,18.10375995,4.52653141\H,0,5.39006379,17.0479910
 1,6.64692408\H,0,3.68049601,17.00597242,6.33008589\H,0,5.17729152,15.2
 352587,8.5683648\H,0,3.44867207,15.24825227,8.31386016\H,0,4.31298179,
 13.73051525,8.36395704\H,0,9.82257476,8.11470751,5.3491278\H,0,8.12298
 422,7.71041323,5.38082625\H,0,8.97277949,7.79428115,3.85639821\H,0,10.
 33673412,10.41196317,3.87265164\H,0,9.33680581,12.72836708,3.99931186\
 H,0,6.53752333,9.94074347,5.50332655\\Version=ES64L-G16RevA.03\State=6
 -A\HF=-3879.3355584\S2=8.76077\S2-1=0.\S2A=8.750035\RMSD=3.281e-09\Dip
 ole=-0.8484194,-1.8081002,-0.3792127\Quadrupole=-27.9938498,9.2161059,
 18.7777439,0.4290082,-4.5414423,-10.2517118\PG=C01 [X(C41H46Fe1N6O4S1)
 ]\\@


 AND ALL THIS SCIENCE I DON'T UNDERSTAND
 IT'S JUST MY JOB FIVE DAYS A WEEK

                           -- ELTON JOHN, "ROCKET MAN"
 Job cpu time:       1 days 14 hours 25 minutes 39.9 seconds.
 Elapsed time:       0 days  9 hours 38 minutes  2.9 seconds.
 File lengths (MBytes):  RWF=   4328 Int=      0 D2E=      0 Chk=    298 Scr=      1
 Normal termination of Gaussian 16 at Fri Jan 27 13:52:47 2023.
