 Entering Gaussian System, Link 0=g16
 Input=/net/homes/chemie/zhartovska/work/BioModel/Konrad/1c6r/1c6r05/1c6r05.com
 Output=/net/homes/chemie/zhartovska/work/BioModel/Konrad/1c6r/1c6r05/1c6r05.log
 Initial command:
 /afs/math/software/gaussian/g16.A03/g16/l1.exe "/scratch/zhartovska_gaussian.pzKe2tD/Gau-25388.inp" -scrdir="/scratch/zhartovska_gaussian.pzKe2tD/"
 Entering Link 1 = /afs/math/software/gaussian/g16.A03/g16/l1.exe PID=     25389.
  
 Copyright (c) 1988,1990,1992,1993,1995,1998,2003,2009,2016,
            Gaussian, Inc.  All Rights Reserved.
  
 This is part of the Gaussian(R) 16 program.  It is based on
 the Gaussian(R) 09 system (copyright 2009, Gaussian, Inc.),
 the Gaussian(R) 03 system (copyright 2003, Gaussian, Inc.),
 the Gaussian(R) 98 system (copyright 1998, Gaussian, Inc.),
 the Gaussian(R) 94 system (copyright 1995, Gaussian, Inc.),
 the Gaussian 92(TM) system (copyright 1992, Gaussian, Inc.),
 the Gaussian 90(TM) system (copyright 1990, Gaussian, Inc.),
 the Gaussian 88(TM) system (copyright 1988, Gaussian, Inc.),
 the Gaussian 86(TM) system (copyright 1986, Carnegie Mellon
 University), and the Gaussian 82(TM) system (copyright 1983,
 Carnegie Mellon University). Gaussian is a federally registered
 trademark of Gaussian, Inc.
  
 This software contains proprietary and confidential information,
 including trade secrets, belonging to Gaussian, Inc.
  
 This software is provided under written license and may be
 used, copied, transmitted, or stored only in accord with that
 written license.
  
 The following legend is applicable only to US Government
 contracts under FAR:
  
                    RESTRICTED RIGHTS LEGEND
  
 Use, reproduction and disclosure by the US Government is
 subject to restrictions as set forth in subparagraphs (a)
 and (c) of the Commercial Computer Software - Restricted
 Rights clause in FAR 52.227-19.
  
 Gaussian, Inc.
 340 Quinnipiac St., Bldg. 40, Wallingford CT 06492
  
  
 ---------------------------------------------------------------
 Warning -- This program may not be used in any manner that
 competes with the business of Gaussian, Inc. or will provide
 assistance to any competitor of Gaussian, Inc.  The licensee
 of this program is prohibited from giving any competitor of
 Gaussian, Inc. access to this program.  By using this program,
 the user acknowledges that Gaussian, Inc. is engaged in the
 business of creating and licensing software in the field of
 computational chemistry and represents and warrants to the
 licensee that it is not a competitor of Gaussian, Inc. and that
 it will not use this program in any manner prohibited above.
 ---------------------------------------------------------------
  

 Cite this work as:
 Gaussian 16, Revision A.03,
 M. J. Frisch, G. W. Trucks, H. B. Schlegel, G. E. Scuseria, 
 M. A. Robb, J. R. Cheeseman, G. Scalmani, V. Barone, 
 G. A. Petersson, H. Nakatsuji, X. Li, M. Caricato, A. V. Marenich, 
 J. Bloino, B. G. Janesko, R. Gomperts, B. Mennucci, H. P. Hratchian, 
 J. V. Ortiz, A. F. Izmaylov, J. L. Sonnenberg, D. Williams-Young, 
 F. Ding, F. Lipparini, F. Egidi, J. Goings, B. Peng, A. Petrone, 
 T. Henderson, D. Ranasinghe, V. G. Zakrzewski, J. Gao, N. Rega, 
 G. Zheng, W. Liang, M. Hada, M. Ehara, K. Toyota, R. Fukuda, 
 J. Hasegawa, M. Ishida, T. Nakajima, Y. Honda, O. Kitao, H. Nakai, 
 T. Vreven, K. Throssell, J. A. Montgomery, Jr., J. E. Peralta, 
 F. Ogliaro, M. J. Bearpark, J. J. Heyd, E. N. Brothers, K. N. Kudin, 
 V. N. Staroverov, T. A. Keith, R. Kobayashi, J. Normand, 
 K. Raghavachari, A. P. Rendell, J. C. Burant, S. S. Iyengar, 
 J. Tomasi, M. Cossi, J. M. Millam, M. Klene, C. Adamo, R. Cammi, 
 J. W. Ochterski, R. L. Martin, K. Morokuma, O. Farkas, 
 J. B. Foresman, and D. J. Fox, Gaussian, Inc., Wallingford CT, 2016.
 
 ******************************************
 Gaussian 16:  ES64L-G16RevA.03 25-Dec-2016
                 3-Mar-2023 
 ******************************************
 %nprocs=12
 Will use up to   12 processors via shared memory.
 %mem=16GB
 %oldchk=1c6r_II_Q.chk
 %chk=1c6r_II_Qn.chk
 Copying data from "1c6r_II_Q.chk" to current chk file "1c6r_II_Qn.chk"
 IOpt=  2 FromEx=T IUOpen= 4 IOptOp= 5 NList=   0 IFRang= 0 IUIn= 4 IUOut= 2.
 ----------------------------------------------------------------------
 # PBE1PBE/def2TZVP guess=read scf=maxcycle=999 empiricaldispersion=GD3
 BJ geom=check pop=nbo
 ----------------------------------------------------------------------
 1/29=2,38=1,172=1/1;
 2/12=2,40=1/2;
 3/5=44,7=101,11=2,14=-4,25=1,30=1,74=-13,116=-2,124=41/1,2,3;
 4/5=1/1;
 5/5=2,7=999,38=6/2;
 6/7=2,8=2,9=2,10=2,28=1,40=1/1,7;
 99/5=1,9=1/99;
 ---------
 1c6r_II_Q
 ---------
 Structure from the checkpoint file:  "1c6r_II_Qn.chk"
 Charge =  0 Multiplicity = 5
 Z-Matrix found in chk file.
 C,0,8.89,8.219,4.835
 C,0,8.542,9.673,4.721
 N,0,9.424,10.61,4.23
 C,0,7.431,10.356,5.086
 C,0,8.878,11.811,4.304
 N,0,7.668,11.684,4.819
 C,0,4.888,17.037001,4.584
 C,0,4.631,16.620001,6.026
 S,0,4.631,14.848,6.261
 C,0,4.365,14.756,8.063
 C,0,8.735,15.487,5.374
 C,0,7.2,12.459,8.761
 C,0,3.75,11.022,5.782
 C,0,5.717,13.521,2.146
 C,0,8.67,14.779,6.56
 C,0,9.56,14.991,7.706
 C,0,9.051,14.192,8.704
 C,0,7.94,13.454,8.12
 C,0,9.493,14.114,10.165
 C,0,10.815,15.92,7.701
 C,0,11.998,15.412,6.85
 C,0,13.116,16.438999,6.68
 O,0,14.251,16.030001,6.325
 O,0,12.866,17.65,6.869
 C,0,6.098,11.782,8.238
 C,0,5.333,10.788,8.931
 C,0,4.295,10.442,8.131
 C,0,4.479,11.225,6.939
 C,0,5.678,10.242,10.31
 C,0,3.22,9.557,8.391
 C,0,2.224,9.871,9.331
 C,0,4.,11.535,4.54
 C,0,3.264,11.197,3.338
 C,0,3.857,11.84,2.313
 C,0,4.947,12.6,2.87
 C,0,2.19,10.125,3.253
 C,0,3.625,11.653,0.936
 C,0,2.443,12.128,0.328
 C,0,6.634,14.375,2.733
 C,0,7.324,15.495,2.068
 C,0,8.118,16.086,2.995
 C,0,7.947,15.317,4.238
 C,0,7.232,15.862,0.614
 C,0,9.001,17.297001,2.816
 C,0,8.309,18.487,3.442
 C,0,8.967,19.802999,3.062
 O,0,9.935,20.219999,3.735
 O,0,8.548,20.422001,2.068
 N,0,7.704,13.845,6.815
 N,0,5.584,12.017,7.002
 N,0,5.036,12.387,4.26
 N,0,6.991,14.326,4.102
 Fe,0,6.33,13.14,5.558
 H,0,13.58468023,18.27886097,6.96714585
 H,0,12.40431272,14.5390858,7.31672344
 H,0,11.63122057,15.14310058,5.88146195
 H,0,10.52155682,16.87983182,7.33017123
 H,0,11.15175042,16.03592022,8.70999042
 H,0,10.43246649,14.61295289,10.28053668
 H,0,8.75982497,14.58601378,10.78512689
 H,0,9.59614573,13.08842677,10.45215936
 H,0,7.50791538,12.18931582,9.74961447
 H,0,6.60974084,10.65596075,10.63464673
 H,0,4.90787415,10.51022619,11.00271992
 H,0,5.7588075,9.17615311,10.26162065
 H,0,2.44773403,10.52173565,10.15038159
 H,0,1.24178262,9.45938383,9.22745699
 H,0,3.16527293,8.62954242,7.86022002
 H,0,2.89076353,10.39027893,5.86883994
 H,0,2.55611562,9.21811778,3.68707832
 H,0,1.31980188,10.44899944,3.78467621
 H,0,1.93795875,9.95316709,2.22740327
 H,0,2.4623702,12.4673844,-0.68656544
 H,0,1.52762269,12.14868727,0.88167537
 H,0,4.35527065,11.14361116,0.34259644
 H,0,5.5890079,13.56591299,1.08463256
 H,0,8.08217155,15.47315201,0.0935141
 H,0,6.33814784,15.44696689,0.19725567
 H,0,7.2101597,16.92725257,0.51571492
 H,0,9.47769304,16.25556691,5.32289285
 H,0,9.94166855,17.13191877,3.29848372
 H,0,9.15742727,17.47828317,1.77313506
 H,0,8.33418803,18.38182338,4.50652029
 H,0,7.28899129,18.50382819,3.11920122
 H,0,9.16906913,20.80896693,1.44660599
 H,0,5.80931057,16.60915603,4.24779245
 H,0,4.0870674,16.69106919,3.96453398
 H,0,4.94818898,18.10375995,4.52653141
 H,0,5.39006379,17.04799101,6.64692408
 H,0,3.68049601,17.00597242,6.33008589
 H,0,5.17729152,15.2352587,8.5683648
 H,0,3.44867207,15.24825227,8.31386016
 H,0,4.31298179,13.73051525,8.36395704
 H,0,9.82257476,8.11470751,5.3491278
 H,0,8.12298422,7.71041323,5.38082625
 H,0,8.97277949,7.79428115,3.85639821
 H,0,10.33673412,10.41196317,3.87265164
 H,0,9.33680581,12.72836708,3.99931186
 H,0,6.53752333,9.94074347,5.50332655
 Recover connectivity data from disk.
 Stoichiometry    C41H46FeN6O4S(5)
 Framework group  C1[X(C41H46FeN6O4S)]
 Deg. of freedom   291
 Full point group                 C1      NOp   1
 Largest Abelian subgroup         C1      NOp   1
 Largest concise Abelian subgroup C1      NOp   1
                         Standard orientation:                         
 ---------------------------------------------------------------------
 Center     Atomic      Atomic             Coordinates (Angstroms)
 Number     Number       Type             X           Y           Z
 ---------------------------------------------------------------------
      1          6           0        2.736242   -1.776043    4.898489
      2          6           0        1.883989   -1.152163    3.834226
      3          7           0        0.549537   -0.869223    4.024381
      4          6           0        2.163217   -0.809694    2.554077
      5          6           0        0.037210   -0.387008    2.905909
      6          7           0        0.996331   -0.339799    1.998544
      7          6           0       -1.121194    2.447425   -2.919353
      8          6           0       -0.477081    1.206254   -3.522607
      9         16           0        0.855251    0.546857   -2.529984
     10          6           0        1.307309   -0.917554   -3.518704
     11          6           0       -2.452476   -0.302014   -0.004859
     12          6           0        1.190179   -3.341197   -0.705720
     13          6           0        4.205773    0.356876   -0.436711
     14          6           0        0.636291    3.287494    0.979221
     15          6           0       -1.751367   -1.480337   -0.183986
     16          6           0       -2.369027   -2.801194   -0.339528
     17          6           0       -1.326576   -3.648109   -0.638721
     18          6           0       -0.109593   -2.852222   -0.564296
     19          6           0       -1.395852   -5.121432   -1.039331
     20          6           0       -3.890341   -3.101707   -0.156806
     21          6           0       -4.402298   -3.010647    1.296247
     22          6           0       -5.923453   -3.084036    1.415627
     23          8           0       -6.419370   -3.374962    2.534089
     24          8           0       -6.627206   -2.826887    0.413953
     25          6           0        2.363236   -2.586173   -0.693935
     26          6           0        3.684907   -3.108953   -0.876683
     27          6           0        4.539660   -2.057220   -0.897027
     28          6           0        3.703305   -0.905992   -0.689675
     29          6           0        4.015606   -4.589969   -1.003218
     30          6           0        5.937894   -2.043612   -1.123315
     31          6           0        6.478357   -2.342578   -2.385349
     32          6           0        3.518583    1.453110    0.004053
     33          6           0        4.119993    2.723094    0.359285
     34          6           0        3.133375    3.516717    0.820229
     35          6           0        1.911080    2.758917    0.732570
     36          6           0        5.615681    2.986007    0.419954
     37          6           0        3.267557    4.758189    1.472659
     38          6           0        3.635550    5.918056    0.757325
     39          6           0       -0.536506    2.603013    0.713125
     40          6           0       -1.897794    3.166591    0.757848
     41          6           0       -2.755821    2.174098    0.414640
     42          6           0       -1.932585    0.976801    0.181374
     43          6           0       -2.273862    4.556564    1.186588
     44          6           0       -4.256939    2.257772    0.280854
     45          6           0       -4.600448    2.323799   -1.190363
     46          6           0       -6.052051    2.705642   -1.427561
     47          8           0       -6.927044    1.812214   -1.431703
     48          8           0       -6.342982    3.905097   -1.580619
     49          7           0       -0.390255   -1.522294   -0.311070
     50          7           0        2.390691   -1.235478   -0.545656
     51          7           0        2.168352    1.465181    0.237144
     52          7           0       -0.581066    1.253457    0.288007
     53         26           0        0.900382   -0.022733   -0.086298
     54          1           0       -7.558144   -3.061246    0.408417
     55          1           0       -3.976441   -3.814701    1.859312
     56          1           0       -4.071037   -2.084546    1.717558
     57          1           0       -4.444431   -2.407006   -0.752856
     58          1           0       -4.084250   -4.089127   -0.520538
     59          1           0       -2.376239   -5.500001   -0.838268
     60          1           0       -1.183695   -5.217435   -2.083684
     61          1           0       -0.676122   -5.678309   -0.476503
     62          1           0        1.297200   -4.397853   -0.835818
     63          1           0        3.126999   -5.167652   -0.856384
     64          1           0        4.410848   -4.785133   -1.978203
     65          1           0        4.741345   -4.857795   -0.263980
     66          1           0        5.944017   -2.979497   -3.058932
     67          1           0        7.424277   -1.933331   -2.672842
     68          1           0        6.596599   -1.800465   -0.315919
     69          1           0        5.253742    0.491703   -0.605477
     70          1           0        6.089599    2.218821    0.995911
     71          1           0        6.018030    2.987664   -0.571516
     72          1           0        5.792415    3.936636    0.878179
     73          1           0        3.256084    6.873171    1.055084
     74          1           0        4.293970    5.842170   -0.082690
     75          1           0        3.087938    4.822748    2.525498
     76          1           0        0.566579    4.271059    1.394719
     77          1           0       -2.613809    4.537223    2.200966
     78          1           0       -1.420296    5.197070    1.108631
     79          1           0       -3.055310    4.925316    0.555509
     80          1           0       -3.519477   -0.381915   -0.009894
     81          1           0       -4.706814    1.390762    0.717667
     82          1           0       -4.614533    3.137171    0.774498
     83          1           0       -4.417467    1.366561   -1.632078
     84          1           0       -3.970141    3.049130   -1.661010
     85          1           0       -7.113335    4.272077   -1.140754
     86          1           0       -1.458655    2.228068   -1.927939
     87          1           0       -0.403746    3.240496   -2.884612
     88          1           0       -1.953732    2.745753   -3.521667
     89          1           0       -1.226906    0.451216   -3.634769
     90          1           0       -0.093008    1.455220   -4.489769
     91          1           0        0.470968   -1.582677   -3.573893
     92          1           0        1.584199   -0.610067   -4.505458
     93          1           0        2.131968   -1.419047   -3.056814
     94          1           0        2.250615   -2.651209    5.276841
     95          1           0        3.684772   -2.045819    4.483264
     96          1           0        2.881521   -1.076311    5.694836
     97          1           0        0.046076   -1.007408    4.877278
     98          1           0       -0.979338   -0.086520    2.760176
     99          1           0        3.112514   -0.889636    2.066897
 ---------------------------------------------------------------------
 Rotational constants (GHZ):           0.0664570           0.0432910           0.0345974
 Standard basis: def2TZVP (5D, 7F)
 There are  2206 symmetry adapted cartesian basis functions of A   symmetry.
 There are  1939 symmetry adapted basis functions of A   symmetry.
  1939 basis functions,  3140 primitive gaussians,  2206 cartesian basis functions
   206 alpha electrons      202 beta electrons
       nuclear repulsion energy      8850.4884414278 Hartrees.
 NAtoms=   99 NActive=   99 NUniq=   99 SFac= 1.00D+00 NAtFMM=   60 NAOKFM=T Big=T
 Integral buffers will be    131072 words long.
 Raffenetti 2 integral format.
 Two-electron integral symmetry is turned on.
 Nuclear repulsion after empirical dispersion term =     8850.3422195728 Hartrees.
 One-electron integrals computed using PRISM.
   1 Symmetry operations used in ECPInt.
 ECPInt:  NShTT=  299151 NPrTT=  925475 LenC2=  219803 LenP2D=  438650.
 LDataN:  DoStor=T MaxTD1= 6 Len=  172
 NBasis=  1939 RedAO= T EigKep=  3.52D-06  NBF=  1939
 NBsUse=  1939 1.00D-06 EigRej= -1.00D+00 NBFU=  1939
 Initial guess from the checkpoint file:  "1c6r_II_Qn.chk"
 B after Tr=    -0.000000   -0.000000    0.000000
         Rot=    1.000000    0.000000    0.000000   -0.000000 Ang=   0.00 deg.
 Initial guess <Sx>= 0.0000 <Sy>= 0.0000 <Sz>= 2.0000 <S**2>= 6.0494 S= 2.0099
 Requested convergence on RMS density matrix=1.00D-08 within 999 cycles.
 Requested convergence on MAX density matrix=1.00D-06.
 Requested convergence on             energy=1.00D-06.
 No special actions if energy rises.
 EnCoef did   100 forward-backward iterations
 EnCoef did     4 forward-backward iterations
 EnCoef did     3 forward-backward iterations
 EnCoef did     1 forward-backward iterations
 EnCoef did   100 forward-backward iterations
 EnCoef did     5 forward-backward iterations
 EnCoef did     3 forward-backward iterations
 EnCoef did     7 forward-backward iterations
 EnCoef did     4 forward-backward iterations
 EnCoef did     8 forward-backward iterations
 EnCoef did     3 forward-backward iterations
 EnCoef did    20 forward-backward iterations
 EnCoef did    24 forward-backward iterations
 EnCoef did   100 forward-backward iterations
 EnCoef did   100 forward-backward iterations
 EnCoef did     6 forward-backward iterations
 Restarting incremental Fock formation.
 Rare condition: small coef for last iteration:  0.000D+00
 Rare condition: small coef for last iteration:  0.000D+00
 Rare condition: small coef for last iteration:  0.000D+00
 Rare condition: small coef for last iteration:  0.000D+00
 Rare condition: small coef for last iteration:  0.000D+00
 Rare condition: small coef for last iteration:  0.000D+00
 Rare condition: small coef for last iteration:  0.000D+00
 Rare condition: small coef for last iteration:  0.000D+00
 Restarting incremental Fock formation.
 Rare condition: small coef for last iteration:  0.000D+00
 Rare condition: small coef for last iteration:  0.000D+00
 Rare condition: small coef for last iteration:  0.000D+00
 Rare condition: small coef for last iteration:  0.000D+00
 Restarting incremental Fock formation.
 Restarting incremental Fock formation.
 Restarting incremental Fock formation.
 SCF Done:  E(UPBE1PBE) =  -3879.37498700     A.U. after  109 cycles
            NFock=109  Conv=0.43D-08     -V/T= 2.0031
 <Sx>= 0.0000 <Sy>= 0.0000 <Sz>= 2.0000 <S**2>= 6.0835 S= 2.0166
 <L.S>= 0.000000000000E+00
 Annihilation of the first spin contaminant:
 S**2 before annihilation     6.0835,   after     6.0023

 **********************************************************************

            Population analysis using the SCF density.

 **********************************************************************

 Orbital symmetries:
 Alpha Orbitals:
       Occupied  (A) (A) (A) (A) (A) (A) (A) (A) (A) (A) (A) (A)
                 (A) (A) (A) (A) (A) (A) (A) (A) (A) (A) (A) (A)
                 (A) (A) (A) (A) (A) (A) (A) (A) (A) (A) (A) (A)
                 (A) (A) (A) (A) (A) (A) (A) (A) (A) (A) (A) (A)
                 (A) (A) (A) (A) (A) (A) (A) (A) (A) (A) (A) (A)
                 (A) (A) (A) (A) (A) (A) (A) (A) (A) (A) (A) (A)
                 (A) (A) (A) (A) (A) (A) (A) (A) (A) (A) (A) (A)
                 (A) (A) (A) (A) (A) (A) (A) (A) (A) (A) (A) (A)
                 (A) (A) (A) (A) (A) (A) (A) (A) (A) (A) (A) (A)
                 (A) (A) (A) (A) (A) (A) (A) (A) (A) (A) (A) (A)
                 (A) (A) (A) (A) (A) (A) (A) (A) (A) (A) (A) (A)
                 (A) (A) (A) (A) (A) (A) (A) (A) (A) (A) (A) (A)
                 (A) (A) (A) (A) (A) (A) (A) (A) (A) (A) (A) (A)
                 (A) (A) (A) (A) (A) (A) (A) (A) (A) (A) (A) (A)
                 (A) (A) (A) (A) (A) (A) (A) (A) (A) (A) (A) (A)
                 (A) (A) (A) (A) (A) (A) (A) (A) (A) (A) (A) (A)
                 (A) (A) (A) (A) (A) (A) (A) (A) (A) (A) (A) (A)
                 (A) (A)
       Virtual   (A) (A) (A) (A) (A) (A) (A) (A) (A) (A) (A) (A)
                 (A) (A) (A) (A) (A) (A) (A) (A) (A) (A) (A) (A)
                 (A) (A) (A) (A) (A) (A) (A) (A) (A) (A) (A) (A)
                 (A) (A) (A) (A) (A) (A) (A) (A) (A) (A) (A) (A)
                 (A) (A) (A) (A) (A) (A) (A) (A) (A) (A) (A) (A)
                 (A) (A) (A) (A) (A) (A) (A) (A) (A) (A) (A) (A)
                 (A) (A) (A) (A) (A) (A) (A) (A) (A) (A) (A) (A)
                 (A) (A) (A) (A) (A) (A) (A) (A) (A) (A) (A) (A)
                 (A) (A) (A) (A) (A) (A) (A) (A) (A) (A) (A) (A)
                 (A) (A) (A) (A) (A) (A) (A) (A) (A) (A) (A) (A)
                 (A) (A) (A) (A) (A) (A) (A) (A) (A) (A) (A) (A)
                 (A) (A) (A) (A) (A) (A) (A) (A) (A) (A) (A) (A)
                 (A) (A) (A) (A) (A) (A) (A) (A) (A) (A) (A) (A)
                 (A) (A) (A) (A) (A) (A) (A) (A) (A) (A) (A) (A)
                 (A) (A) (A) (A) (A) (A) (A) (A) (A) (A) (A) (A)
                 (A) (A) (A) (A) (A) (A) (A) (A) (A) (A) (A) (A)
                 (A) (A) (A) (A) (A) (A) (A) (A) (A) (A) (A) (A)
                 (A) (A) (A) (A) (A) (A) (A) (A) (A) (A) (A) (A)
                 (A) (A) (A) (A) (A) (A) (A) (A) (A) (A) (A) (A)
                 (A) (A) (A) (A) (A) (A) (A) (A) (A) (A) (A) (A)
                 (A) (A) (A) (A) (A) (A) (A) (A) (A) (A) (A) (A)
                 (A) (A) (A) (A) (A) (A) (A) (A) (A) (A) (A) (A)
                 (A) (A) (A) (A) (A) (A) (A) (A) (A) (A) (A) (A)
                 (A) (A) (A) (A) (A) (A) (A) (A) (A) (A) (A) (A)
                 (A) (A) (A) (A) (A) (A) (A) (A) (A) (A) (A) (A)
                 (A) (A) (A) (A) (A) (A) (A) (A) (A) (A) (A) (A)
                 (A) (A) (A) (A) (A) (A) (A) (A) (A) (A) (A) (A)
                 (A) (A) (A) (A) (A) (A) (A) (A) (A) (A) (A) (A)
                 (A) (A) (A) (A) (A) (A) (A) (A) (A) (A) (A) (A)
                 (A) (A) (A) (A) (A) (A) (A) (A) (A) (A) (A) (A)
                 (A) (A) (A) (A) (A) (A) (A) (A) (A) (A) (A) (A)
                 (A) (A) (A) (A) (A) (A) (A) (A) (A) (A) (A) (A)
                 (A) (A) (A) (A) (A) (A) (A) (A) (A) (A) (A) (A)
                 (A) (A) (A) (A) (A) (A) (A) (A) (A) (A) (A) (A)
                 (A) (A) (A) (A) (A) (A) (A) (A) (A) (A) (A) (A)
                 (A) (A) (A) (A) (A) (A) (A) (A) (A) (A) (A) (A)
                 (A) (A) (A) (A) (A) (A) (A) (A) (A) (A) (A) (A)
                 (A) (A) (A) (A) (A) (A) (A) (A) (A) (A) (A) (A)
                 (A) (A) (A) (A) (A) (A) (A) (A) (A) (A) (A) (A)
                 (A) (A) (A) (A) (A) (A) (A) (A) (A) (A) (A) (A)
                 (A) (A) (A) (A) (A) (A) (A) (A) (A) (A) (A) (A)
                 (A) (A) (A) (A) (A) (A) (A) (A) (A) (A) (A) (A)
                 (A) (A) (A) (A) (A) (A) (A) (A) (A) (A) (A) (A)
                 (A) (A) (A) (A) (A) (A) (A) (A) (A) (A) (A) (A)
                 (A) (A) (A) (A) (A) (A) (A) (A) (A) (A) (A) (A)
                 (A) (A) (A) (A) (A) (A) (A) (A) (A) (A) (A) (A)
                 (A) (A) (A) (A) (A) (A) (A) (A) (A) (A) (A) (A)
                 (A) (A) (A) (A) (A) (A) (A) (A) (A) (A) (A) (A)
                 (A) (A) (A) (A) (A) (A) (A) (A) (A) (A) (A) (A)
                 (A) (A) (A) (A) (A) (A) (A) (A) (A) (A) (A) (A)
                 (A) (A) (A) (A) (A) (A) (A) (A) (A) (A) (A) (A)
                 (A) (A) (A) (A) (A) (A) (A) (A) (A) (A) (A) (A)
                 (A) (A) (A) (A) (A) (A) (A) (A) (A) (A) (A) (A)
                 (A) (A) (A) (A) (A) (A) (A) (A) (A) (A) (A) (A)
                 (A) (A) (A) (A) (A) (A) (A) (A) (A) (A) (A) (A)
                 (A) (A) (A) (A) (A) (A) (A) (A) (A) (A) (A) (A)
                 (A) (A) (A) (A) (A) (A) (A) (A) (A) (A) (A) (A)
                 (A) (A) (A) (A) (A) (A) (A) (A) (A) (A) (A) (A)
                 (A) (A) (A) (A) (A) (A) (A) (A) (A) (A) (A) (A)
                 (A) (A) (A) (A) (A) (A) (A) (A) (A) (A) (A) (A)
                 (A) (A) (A) (A) (A) (A) (A) (A) (A) (A) (A) (A)
                 (A) (A) (A) (A) (A) (A) (A) (A) (A) (A) (A) (A)
                 (A) (A) (A) (A) (A) (A) (A) (A) (A) (A) (A) (A)
                 (A) (A) (A) (A) (A) (A) (A) (A) (A) (A) (A) (A)
                 (A) (A) (A) (A) (A) (A) (A) (A) (A) (A) (A) (A)
                 (A) (A) (A) (A) (A) (A) (A) (A) (A) (A) (A) (A)
                 (A) (A) (A) (A) (A) (A) (A) (A) (A) (A) (A) (A)
                 (A) (A) (A) (A) (A) (A) (A) (A) (A) (A) (A) (A)
                 (A) (A) (A) (A) (A) (A) (A) (A) (A) (A) (A) (A)
                 (A) (A) (A) (A) (A) (A) (A) (A) (A) (A) (A) (A)
                 (A) (A) (A) (A) (A) (A) (A) (A) (A) (A) (A) (A)
                 (A) (A) (A) (A) (A) (A) (A) (A) (A) (A) (A) (A)
                 (A) (A) (A) (A) (A) (A) (A) (A) (A) (A) (A) (A)
                 (A) (A) (A) (A) (A) (A) (A) (A) (A) (A) (A) (A)
                 (A) (A) (A) (A) (A) (A) (A) (A) (A) (A) (A) (A)
                 (A) (A) (A) (A) (A) (A) (A) (A) (A) (A) (A) (A)
                 (A) (A) (A) (A) (A) (A) (A) (A) (A) (A) (A) (A)
                 (A) (A) (A) (A) (A) (A) (A) (A) (A) (A) (A) (A)
                 (A) (A) (A) (A) (A) (A) (A) (A) (A) (A) (A) (A)
                 (A) (A) (A) (A) (A) (A) (A) (A) (A) (A) (A) (A)
                 (A) (A) (A) (A) (A) (A) (A) (A) (A) (A) (A) (A)
                 (A) (A) (A) (A) (A) (A) (A) (A) (A) (A) (A) (A)
                 (A) (A) (A) (A) (A) (A) (A) (A) (A) (A) (A) (A)
                 (A) (A) (A) (A) (A) (A) (A) (A) (A) (A) (A) (A)
                 (A) (A) (A) (A) (A) (A) (A) (A) (A) (A) (A) (A)
                 (A) (A) (A) (A) (A) (A) (A) (A) (A) (A) (A) (A)
                 (A) (A) (A) (A) (A) (A) (A) (A) (A) (A) (A) (A)
                 (A) (A) (A) (A) (A) (A) (A) (A) (A) (A) (A) (A)
                 (A) (A) (A) (A) (A) (A) (A) (A) (A) (A) (A) (A)
                 (A) (A) (A) (A) (A) (A) (A) (A) (A) (A) (A) (A)
                 (A) (A) (A) (A) (A) (A) (A) (A) (A) (A) (A) (A)
                 (A) (A) (A) (A) (A) (A) (A) (A) (A) (A) (A) (A)
                 (A) (A) (A) (A) (A) (A) (A) (A) (A) (A) (A) (A)
                 (A) (A) (A) (A) (A) (A) (A) (A) (A) (A) (A) (A)
                 (A) (A) (A) (A) (A) (A) (A) (A) (A) (A) (A) (A)
                 (A) (A) (A) (A) (A) (A) (A) (A) (A) (A) (A) (A)
                 (A) (A) (A) (A) (A) (A) (A) (A) (A) (A) (A) (A)
                 (A) (A) (A) (A) (A) (A) (A) (A) (A) (A) (A) (A)
                 (A) (A) (A) (A) (A) (A) (A) (A) (A) (A) (A) (A)
                 (A) (A) (A) (A) (A) (A) (A) (A) (A) (A) (A) (A)
                 (A) (A) (A) (A) (A) (A) (A) (A) (A) (A) (A) (A)
                 (A) (A) (A) (A) (A) (A) (A) (A) (A) (A) (A) (A)
                 (A) (A) (A) (A) (A) (A) (A) (A) (A) (A) (A) (A)
                 (A) (A) (A) (A) (A) (A) (A) (A) (A) (A) (A) (A)
                 (A) (A) (A) (A) (A) (A) (A) (A) (A) (A) (A) (A)
                 (A) (A) (A) (A) (A) (A) (A) (A) (A) (A) (A) (A)
                 (A) (A) (A) (A) (A) (A) (A) (A) (A) (A) (A) (A)
                 (A) (A) (A) (A) (A) (A) (A) (A) (A) (A) (A) (A)
                 (A) (A) (A) (A) (A) (A) (A) (A) (A) (A) (A) (A)
                 (A) (A) (A) (A) (A) (A) (A) (A) (A) (A) (A) (A)
                 (A) (A) (A) (A) (A) (A) (A) (A) (A) (A) (A) (A)
                 (A) (A) (A) (A) (A) (A) (A) (A) (A) (A) (A) (A)
                 (A) (A) (A) (A) (A) (A) (A) (A) (A) (A) (A) (A)
                 (A) (A) (A) (A) (A) (A) (A) (A) (A) (A) (A) (A)
                 (A) (A) (A) (A) (A) (A) (A) (A) (A) (A) (A) (A)
                 (A) (A) (A) (A) (A) (A) (A) (A) (A) (A) (A) (A)
                 (A) (A) (A) (A) (A) (A) (A) (A) (A) (A) (A) (A)
                 (A) (A) (A) (A) (A) (A) (A) (A) (A) (A) (A) (A)
                 (A) (A) (A) (A) (A) (A) (A) (A) (A) (A) (A) (A)
                 (A) (A) (A) (A) (A) (A) (A) (A) (A) (A) (A) (A)
                 (A) (A) (A) (A) (A) (A) (A) (A) (A) (A) (A) (A)
                 (A) (A) (A) (A) (A) (A) (A) (A) (A) (A) (A) (A)
                 (A) (A) (A) (A) (A) (A) (A) (A) (A) (A) (A) (A)
                 (A) (A) (A) (A) (A) (A) (A) (A) (A) (A) (A) (A)
                 (A) (A) (A) (A) (A) (A) (A) (A) (A) (A) (A) (A)
                 (A) (A) (A) (A) (A) (A) (A) (A) (A) (A) (A) (A)
                 (A) (A) (A) (A) (A) (A) (A) (A) (A) (A) (A) (A)
                 (A) (A) (A) (A) (A) (A) (A) (A) (A) (A) (A) (A)
                 (A) (A) (A) (A) (A) (A) (A) (A) (A) (A) (A) (A)
                 (A) (A) (A) (A) (A) (A) (A) (A) (A) (A) (A) (A)
                 (A) (A) (A) (A) (A) (A) (A) (A) (A) (A) (A) (A)
                 (A) (A) (A) (A) (A) (A) (A) (A) (A) (A) (A) (A)
                 (A) (A) (A) (A) (A) (A) (A) (A) (A) (A) (A) (A)
                 (A) (A) (A) (A) (A) (A) (A) (A) (A) (A) (A) (A)
                 (A) (A) (A) (A) (A) (A) (A) (A) (A) (A) (A) (A)
                 (A) (A) (A) (A) (A) (A) (A) (A) (A) (A) (A) (A)
                 (A) (A) (A) (A) (A) (A) (A) (A) (A) (A) (A) (A)
                 (A) (A) (A) (A) (A) (A) (A) (A) (A) (A) (A) (A)
                 (A) (A) (A) (A) (A) (A) (A) (A) (A) (A) (A) (A)
                 (A) (A) (A) (A) (A) (A) (A) (A) (A) (A) (A) (A)
                 (A) (A) (A) (A) (A) (A) (A) (A) (A) (A) (A) (A)
                 (A) (A) (A) (A) (A) (A) (A) (A) (A) (A) (A) (A)
                 (A) (A) (A) (A) (A) (A) (A) (A) (A) (A) (A) (A)
                 (A) (A) (A) (A) (A) (A) (A) (A) (A) (A) (A) (A)
                 (A) (A) (A) (A) (A)
 Beta  Orbitals:
       Occupied  (A) (A) (A) (A) (A) (A) (A) (A) (A) (A) (A) (A)
                 (A) (A) (A) (A) (A) (A) (A) (A) (A) (A) (A) (A)
                 (A) (A) (A) (A) (A) (A) (A) (A) (A) (A) (A) (A)
                 (A) (A) (A) (A) (A) (A) (A) (A) (A) (A) (A) (A)
                 (A) (A) (A) (A) (A) (A) (A) (A) (A) (A) (A) (A)
                 (A) (A) (A) (A) (A) (A) (A) (A) (A) (A) (A) (A)
                 (A) (A) (A) (A) (A) (A) (A) (A) (A) (A) (A) (A)
                 (A) (A) (A) (A) (A) (A) (A) (A) (A) (A) (A) (A)
                 (A) (A) (A) (A) (A) (A) (A) (A) (A) (A) (A) (A)
                 (A) (A) (A) (A) (A) (A) (A) (A) (A) (A) (A) (A)
                 (A) (A) (A) (A) (A) (A) (A) (A) (A) (A) (A) (A)
                 (A) (A) (A) (A) (A) (A) (A) (A) (A) (A) (A) (A)
                 (A) (A) (A) (A) (A) (A) (A) (A) (A) (A) (A) (A)
                 (A) (A) (A) (A) (A) (A) (A) (A) (A) (A) (A) (A)
                 (A) (A) (A) (A) (A) (A) (A) (A) (A) (A) (A) (A)
                 (A) (A) (A) (A) (A) (A) (A) (A) (A) (A) (A) (A)
                 (A) (A) (A) (A) (A) (A) (A) (A) (A) (A)
       Virtual   (A) (A) (A) (A) (A) (A) (A) (A) (A) (A) (A) (A)
                 (A) (A) (A) (A) (A) (A) (A) (A) (A) (A) (A) (A)
                 (A) (A) (A) (A) (A) (A) (A) (A) (A) (A) (A) (A)
                 (A) (A) (A) (A) (A) (A) (A) (A) (A) (A) (A) (A)
                 (A) (A) (A) (A) (A) (A) (A) (A) (A) (A) (A) (A)
                 (A) (A) (A) (A) (A) (A) (A) (A) (A) (A) (A) (A)
                 (A) (A) (A) (A) (A) (A) (A) (A) (A) (A) (A) (A)
                 (A) (A) (A) (A) (A) (A) (A) (A) (A) (A) (A) (A)
                 (A) (A) (A) (A) (A) (A) (A) (A) (A) (A) (A) (A)
                 (A) (A) (A) (A) (A) (A) (A) (A) (A) (A) (A) (A)
                 (A) (A) (A) (A) (A) (A) (A) (A) (A) (A) (A) (A)
                 (A) (A) (A) (A) (A) (A) (A) (A) (A) (A) (A) (A)
                 (A) (A) (A) (A) (A) (A) (A) (A) (A) (A) (A) (A)
                 (A) (A) (A) (A) (A) (A) (A) (A) (A) (A) (A) (A)
                 (A) (A) (A) (A) (A) (A) (A) (A) (A) (A) (A) (A)
                 (A) (A) (A) (A) (A) (A) (A) (A) (A) (A) (A) (A)
                 (A) (A) (A) (A) (A) (A) (A) (A) (A) (A) (A) (A)
                 (A) (A) (A) (A) (A) (A) (A) (A) (A) (A) (A) (A)
                 (A) (A) (A) (A) (A) (A) (A) (A) (A) (A) (A) (A)
                 (A) (A) (A) (A) (A) (A) (A) (A) (A) (A) (A) (A)
                 (A) (A) (A) (A) (A) (A) (A) (A) (A) (A) (A) (A)
                 (A) (A) (A) (A) (A) (A) (A) (A) (A) (A) (A) (A)
                 (A) (A) (A) (A) (A) (A) (A) (A) (A) (A) (A) (A)
                 (A) (A) (A) (A) (A) (A) (A) (A) (A) (A) (A) (A)
                 (A) (A) (A) (A) (A) (A) (A) (A) (A) (A) (A) (A)
                 (A) (A) (A) (A) (A) (A) (A) (A) (A) (A) (A) (A)
                 (A) (A) (A) (A) (A) (A) (A) (A) (A) (A) (A) (A)
                 (A) (A) (A) (A) (A) (A) (A) (A) (A) (A) (A) (A)
                 (A) (A) (A) (A) (A) (A) (A) (A) (A) (A) (A) (A)
                 (A) (A) (A) (A) (A) (A) (A) (A) (A) (A) (A) (A)
                 (A) (A) (A) (A) (A) (A) (A) (A) (A) (A) (A) (A)
                 (A) (A) (A) (A) (A) (A) (A) (A) (A) (A) (A) (A)
                 (A) (A) (A) (A) (A) (A) (A) (A) (A) (A) (A) (A)
                 (A) (A) (A) (A) (A) (A) (A) (A) (A) (A) (A) (A)
                 (A) (A) (A) (A) (A) (A) (A) (A) (A) (A) (A) (A)
                 (A) (A) (A) (A) (A) (A) (A) (A) (A) (A) (A) (A)
                 (A) (A) (A) (A) (A) (A) (A) (A) (A) (A) (A) (A)
                 (A) (A) (A) (A) (A) (A) (A) (A) (A) (A) (A) (A)
                 (A) (A) (A) (A) (A) (A) (A) (A) (A) (A) (A) (A)
                 (A) (A) (A) (A) (A) (A) (A) (A) (A) (A) (A) (A)
                 (A) (A) (A) (A) (A) (A) (A) (A) (A) (A) (A) (A)
                 (A) (A) (A) (A) (A) (A) (A) (A) (A) (A) (A) (A)
                 (A) (A) (A) (A) (A) (A) (A) (A) (A) (A) (A) (A)
                 (A) (A) (A) (A) (A) (A) (A) (A) (A) (A) (A) (A)
                 (A) (A) (A) (A) (A) (A) (A) (A) (A) (A) (A) (A)
                 (A) (A) (A) (A) (A) (A) (A) (A) (A) (A) (A) (A)
                 (A) (A) (A) (A) (A) (A) (A) (A) (A) (A) (A) (A)
                 (A) (A) (A) (A) (A) (A) (A) (A) (A) (A) (A) (A)
                 (A) (A) (A) (A) (A) (A) (A) (A) (A) (A) (A) (A)
                 (A) (A) (A) (A) (A) (A) (A) (A) (A) (A) (A) (A)
                 (A) (A) (A) (A) (A) (A) (A) (A) (A) (A) (A) (A)
                 (A) (A) (A) (A) (A) (A) (A) (A) (A) (A) (A) (A)
                 (A) (A) (A) (A) (A) (A) (A) (A) (A) (A) (A) (A)
                 (A) (A) (A) (A) (A) (A) (A) (A) (A) (A) (A) (A)
                 (A) (A) (A) (A) (A) (A) (A) (A) (A) (A) (A) (A)
                 (A) (A) (A) (A) (A) (A) (A) (A) (A) (A) (A) (A)
                 (A) (A) (A) (A) (A) (A) (A) (A) (A) (A) (A) (A)
                 (A) (A) (A) (A) (A) (A) (A) (A) (A) (A) (A) (A)
                 (A) (A) (A) (A) (A) (A) (A) (A) (A) (A) (A) (A)
                 (A) (A) (A) (A) (A) (A) (A) (A) (A) (A) (A) (A)
                 (A) (A) (A) (A) (A) (A) (A) (A) (A) (A) (A) (A)
                 (A) (A) (A) (A) (A) (A) (A) (A) (A) (A) (A) (A)
                 (A) (A) (A) (A) (A) (A) (A) (A) (A) (A) (A) (A)
                 (A) (A) (A) (A) (A) (A) (A) (A) (A) (A) (A) (A)
                 (A) (A) (A) (A) (A) (A) (A) (A) (A) (A) (A) (A)
                 (A) (A) (A) (A) (A) (A) (A) (A) (A) (A) (A) (A)
                 (A) (A) (A) (A) (A) (A) (A) (A) (A) (A) (A) (A)
                 (A) (A) (A) (A) (A) (A) (A) (A) (A) (A) (A) (A)
                 (A) (A) (A) (A) (A) (A) (A) (A) (A) (A) (A) (A)
                 (A) (A) (A) (A) (A) (A) (A) (A) (A) (A) (A) (A)
                 (A) (A) (A) (A) (A) (A) (A) (A) (A) (A) (A) (A)
                 (A) (A) (A) (A) (A) (A) (A) (A) (A) (A) (A) (A)
                 (A) (A) (A) (A) (A) (A) (A) (A) (A) (A) (A) (A)
                 (A) (A) (A) (A) (A) (A) (A) (A) (A) (A) (A) (A)
                 (A) (A) (A) (A) (A) (A) (A) (A) (A) (A) (A) (A)
                 (A) (A) (A) (A) (A) (A) (A) (A) (A) (A) (A) (A)
                 (A) (A) (A) (A) (A) (A) (A) (A) (A) (A) (A) (A)
                 (A) (A) (A) (A) (A) (A) (A) (A) (A) (A) (A) (A)
                 (A) (A) (A) (A) (A) (A) (A) (A) (A) (A) (A) (A)
                 (A) (A) (A) (A) (A) (A) (A) (A) (A) (A) (A) (A)
                 (A) (A) (A) (A) (A) (A) (A) (A) (A) (A) (A) (A)
                 (A) (A) (A) (A) (A) (A) (A) (A) (A) (A) (A) (A)
                 (A) (A) (A) (A) (A) (A) (A) (A) (A) (A) (A) (A)
                 (A) (A) (A) (A) (A) (A) (A) (A) (A) (A) (A) (A)
                 (A) (A) (A) (A) (A) (A) (A) (A) (A) (A) (A) (A)
                 (A) (A) (A) (A) (A) (A) (A) (A) (A) (A) (A) (A)
                 (A) (A) (A) (A) (A) (A) (A) (A) (A) (A) (A) (A)
                 (A) (A) (A) (A) (A) (A) (A) (A) (A) (A) (A) (A)
                 (A) (A) (A) (A) (A) (A) (A) (A) (A) (A) (A) (A)
                 (A) (A) (A) (A) (A) (A) (A) (A) (A) (A) (A) (A)
                 (A) (A) (A) (A) (A) (A) (A) (A) (A) (A) (A) (A)
                 (A) (A) (A) (A) (A) (A) (A) (A) (A) (A) (A) (A)
                 (A) (A) (A) (A) (A) (A) (A) (A) (A) (A) (A) (A)
                 (A) (A) (A) (A) (A) (A) (A) (A) (A) (A) (A) (A)
                 (A) (A) (A) (A) (A) (A) (A) (A) (A) (A) (A) (A)
                 (A) (A) (A) (A) (A) (A) (A) (A) (A) (A) (A) (A)
                 (A) (A) (A) (A) (A) (A) (A) (A) (A) (A) (A) (A)
                 (A) (A) (A) (A) (A) (A) (A) (A) (A) (A) (A) (A)
                 (A) (A) (A) (A) (A) (A) (A) (A) (A) (A) (A) (A)
                 (A) (A) (A) (A) (A) (A) (A) (A) (A) (A) (A) (A)
                 (A) (A) (A) (A) (A) (A) (A) (A) (A) (A) (A) (A)
                 (A) (A) (A) (A) (A) (A) (A) (A) (A) (A) (A) (A)
                 (A) (A) (A) (A) (A) (A) (A) (A) (A) (A) (A) (A)
                 (A) (A) (A) (A) (A) (A) (A) (A) (A) (A) (A) (A)
                 (A) (A) (A) (A) (A) (A) (A) (A) (A) (A) (A) (A)
                 (A) (A) (A) (A) (A) (A) (A) (A) (A) (A) (A) (A)
                 (A) (A) (A) (A) (A) (A) (A) (A) (A) (A) (A) (A)
                 (A) (A) (A) (A) (A) (A) (A) (A) (A) (A) (A) (A)
                 (A) (A) (A) (A) (A) (A) (A) (A) (A) (A) (A) (A)
                 (A) (A) (A) (A) (A) (A) (A) (A) (A) (A) (A) (A)
                 (A) (A) (A) (A) (A) (A) (A) (A) (A) (A) (A) (A)
                 (A) (A) (A) (A) (A) (A) (A) (A) (A) (A) (A) (A)
                 (A) (A) (A) (A) (A) (A) (A) (A) (A) (A) (A) (A)
                 (A) (A) (A) (A) (A) (A) (A) (A) (A) (A) (A) (A)
                 (A) (A) (A) (A) (A) (A) (A) (A) (A) (A) (A) (A)
                 (A) (A) (A) (A) (A) (A) (A) (A) (A) (A) (A) (A)
                 (A) (A) (A) (A) (A) (A) (A) (A) (A) (A) (A) (A)
                 (A) (A) (A) (A) (A) (A) (A) (A) (A) (A) (A) (A)
                 (A) (A) (A) (A) (A) (A) (A) (A) (A) (A) (A) (A)
                 (A) (A) (A) (A) (A) (A) (A) (A) (A) (A) (A) (A)
                 (A) (A) (A) (A) (A) (A) (A) (A) (A) (A) (A) (A)
                 (A) (A) (A) (A) (A) (A) (A) (A) (A) (A) (A) (A)
                 (A) (A) (A) (A) (A) (A) (A) (A) (A) (A) (A) (A)
                 (A) (A) (A) (A) (A) (A) (A) (A) (A) (A) (A) (A)
                 (A) (A) (A) (A) (A) (A) (A) (A) (A) (A) (A) (A)
                 (A) (A) (A) (A) (A) (A) (A) (A) (A) (A) (A) (A)
                 (A) (A) (A) (A) (A) (A) (A) (A) (A) (A) (A) (A)
                 (A) (A) (A) (A) (A) (A) (A) (A) (A) (A) (A) (A)
                 (A) (A) (A) (A) (A) (A) (A) (A) (A) (A) (A) (A)
                 (A) (A) (A) (A) (A) (A) (A) (A) (A) (A) (A) (A)
                 (A) (A) (A) (A) (A) (A) (A) (A) (A) (A) (A) (A)
                 (A) (A) (A) (A) (A) (A) (A) (A) (A) (A) (A) (A)
                 (A) (A) (A) (A) (A) (A) (A) (A) (A) (A) (A) (A)
                 (A) (A) (A) (A) (A) (A) (A) (A) (A) (A) (A) (A)
                 (A) (A) (A) (A) (A) (A) (A) (A) (A) (A) (A) (A)
                 (A) (A) (A) (A) (A) (A) (A) (A) (A) (A) (A) (A)
                 (A) (A) (A) (A) (A) (A) (A) (A) (A) (A) (A) (A)
                 (A) (A) (A) (A) (A) (A) (A) (A) (A) (A) (A) (A)
                 (A) (A) (A) (A) (A) (A) (A) (A) (A) (A) (A) (A)
                 (A) (A) (A) (A) (A) (A) (A) (A) (A) (A) (A) (A)
                 (A) (A) (A) (A) (A) (A) (A) (A) (A) (A) (A) (A)
                 (A) (A) (A) (A) (A) (A) (A) (A) (A) (A) (A) (A)
                 (A) (A) (A) (A) (A) (A) (A) (A) (A) (A) (A) (A)
                 (A) (A) (A) (A) (A) (A) (A) (A) (A) (A) (A) (A)
                 (A) (A) (A) (A) (A) (A) (A) (A) (A)
 The electronic state is 5-A.
 Alpha  occ. eigenvalues -- -256.41473 -89.01537 -30.22281 -26.06152 -26.03762
 Alpha  occ. eigenvalues --  -26.02779 -19.26684 -19.26251 -19.17172 -19.16884
 Alpha  occ. eigenvalues --  -14.45332 -14.38884 -14.38395 -14.38147 -14.37633
 Alpha  occ. eigenvalues --  -14.37492 -10.35027 -10.34690 -10.28733 -10.26592
 Alpha  occ. eigenvalues --  -10.24910 -10.24642 -10.24238 -10.24182 -10.24170
 Alpha  occ. eigenvalues --  -10.24058 -10.23950 -10.23921 -10.23729 -10.23524
 Alpha  occ. eigenvalues --  -10.23399 -10.23335 -10.23180 -10.23061 -10.22944
 Alpha  occ. eigenvalues --  -10.22791 -10.22738 -10.22705 -10.22409 -10.22336
 Alpha  occ. eigenvalues --  -10.22321 -10.22222 -10.22108 -10.21616 -10.21535
 Alpha  occ. eigenvalues --  -10.21432 -10.21415 -10.21357 -10.21237 -10.21105
 Alpha  occ. eigenvalues --  -10.21051 -10.20716 -10.20621 -10.20204 -10.19983
 Alpha  occ. eigenvalues --  -10.19671 -10.18951  -7.99459  -5.93112  -5.92826
 Alpha  occ. eigenvalues --   -5.92282  -3.61789  -2.41495  -2.35918  -2.35443
 Alpha  occ. eigenvalues --   -1.17238  -1.16948  -1.07238  -1.01869  -1.01400
 Alpha  occ. eigenvalues --   -0.98611  -0.97045  -0.96579  -0.95430  -0.91513
 Alpha  occ. eigenvalues --   -0.84148  -0.83670  -0.83414  -0.83233  -0.82830
 Alpha  occ. eigenvalues --   -0.82371  -0.81983  -0.80560  -0.80207  -0.79232
 Alpha  occ. eigenvalues --   -0.78536  -0.76781  -0.76299  -0.76102  -0.74505
 Alpha  occ. eigenvalues --   -0.73685  -0.73264  -0.72783  -0.71782  -0.71014
 Alpha  occ. eigenvalues --   -0.70041  -0.69652  -0.68905  -0.67131  -0.65935
 Alpha  occ. eigenvalues --   -0.65515  -0.65359  -0.64640  -0.64343  -0.62936
 Alpha  occ. eigenvalues --   -0.62264  -0.61904  -0.60398  -0.58472  -0.57469
 Alpha  occ. eigenvalues --   -0.57260  -0.55574  -0.54783  -0.54372  -0.53905
 Alpha  occ. eigenvalues --   -0.52471  -0.52215  -0.51997  -0.51122  -0.50924
 Alpha  occ. eigenvalues --   -0.50493  -0.50373  -0.49882  -0.49185  -0.48859
 Alpha  occ. eigenvalues --   -0.48612  -0.48602  -0.48476  -0.48010  -0.47942
 Alpha  occ. eigenvalues --   -0.46727  -0.46531  -0.46039  -0.45800  -0.45627
 Alpha  occ. eigenvalues --   -0.45220  -0.44965  -0.44905  -0.44634  -0.44375
 Alpha  occ. eigenvalues --   -0.44278  -0.43860  -0.43685  -0.43620  -0.43340
 Alpha  occ. eigenvalues --   -0.43220  -0.43175  -0.42957  -0.42853  -0.42660
 Alpha  occ. eigenvalues --   -0.42115  -0.42015  -0.41896  -0.41664  -0.41551
 Alpha  occ. eigenvalues --   -0.41290  -0.40991  -0.40586  -0.40367  -0.39770
 Alpha  occ. eigenvalues --   -0.39553  -0.39283  -0.39265  -0.39233  -0.38750
 Alpha  occ. eigenvalues --   -0.38651  -0.38455  -0.38184  -0.38128  -0.38054
 Alpha  occ. eigenvalues --   -0.37578  -0.37459  -0.37209  -0.36833  -0.36520
 Alpha  occ. eigenvalues --   -0.36456  -0.36170  -0.35664  -0.35437  -0.34899
 Alpha  occ. eigenvalues --   -0.34772  -0.34522  -0.33710  -0.33399  -0.32676
 Alpha  occ. eigenvalues --   -0.32309  -0.32229  -0.32033  -0.31588  -0.30546
 Alpha  occ. eigenvalues --   -0.28155  -0.27859  -0.27311  -0.27119  -0.26368
 Alpha  occ. eigenvalues --   -0.26177  -0.25815  -0.25163  -0.23919  -0.23782
 Alpha  occ. eigenvalues --   -0.23132  -0.22551  -0.21470  -0.19544  -0.19145
 Alpha  occ. eigenvalues --   -0.11146
 Alpha virt. eigenvalues --   -0.09116  -0.06518  -0.02711  -0.02094  -0.00967
 Alpha virt. eigenvalues --    0.00104   0.01305   0.01508   0.02021   0.02678
 Alpha virt. eigenvalues --    0.03369   0.03559   0.03963   0.04236   0.04718
 Alpha virt. eigenvalues --    0.05175   0.05408   0.05575   0.05944   0.06118
 Alpha virt. eigenvalues --    0.06484   0.06814   0.06950   0.07166   0.07649
 Alpha virt. eigenvalues --    0.08200   0.08410   0.08685   0.08848   0.09120
 Alpha virt. eigenvalues --    0.09458   0.09657   0.10072   0.10416   0.10684
 Alpha virt. eigenvalues --    0.10785   0.10901   0.11298   0.11527   0.11727
 Alpha virt. eigenvalues --    0.11936   0.12122   0.12371   0.12494   0.12600
 Alpha virt. eigenvalues --    0.12829   0.12913   0.13251   0.13522   0.13599
 Alpha virt. eigenvalues --    0.13779   0.13884   0.14079   0.14254   0.14464
 Alpha virt. eigenvalues --    0.14498   0.14939   0.15087   0.15218   0.15386
 Alpha virt. eigenvalues --    0.15667   0.15724   0.16078   0.16151   0.16356
 Alpha virt. eigenvalues --    0.16527   0.16861   0.16930   0.17221   0.17512
 Alpha virt. eigenvalues --    0.17626   0.17994   0.18073   0.18321   0.18784
 Alpha virt. eigenvalues --    0.18848   0.19271   0.19367   0.19388   0.19674
 Alpha virt. eigenvalues --    0.20095   0.20222   0.20384   0.20531   0.20699
 Alpha virt. eigenvalues --    0.20715   0.21064   0.21294   0.21494   0.21635
 Alpha virt. eigenvalues --    0.21822   0.22044   0.22302   0.22607   0.22777
 Alpha virt. eigenvalues --    0.23097   0.23200   0.23286   0.23489   0.23662
 Alpha virt. eigenvalues --    0.23780   0.24008   0.24178   0.24579   0.24944
 Alpha virt. eigenvalues --    0.25139   0.25361   0.25536   0.25729   0.25876
 Alpha virt. eigenvalues --    0.25952   0.26064   0.26251   0.26623   0.26811
 Alpha virt. eigenvalues --    0.26906   0.27368   0.27625   0.27863   0.28090
 Alpha virt. eigenvalues --    0.28120   0.28685   0.28887   0.29120   0.29312
 Alpha virt. eigenvalues --    0.29563   0.29937   0.30129   0.30359   0.30512
 Alpha virt. eigenvalues --    0.30616   0.30721   0.30996   0.31421   0.31649
 Alpha virt. eigenvalues --    0.31846   0.32019   0.32163   0.32598   0.32775
 Alpha virt. eigenvalues --    0.32963   0.33225   0.33275   0.33434   0.34022
 Alpha virt. eigenvalues --    0.34103   0.34159   0.34479   0.34792   0.34929
 Alpha virt. eigenvalues --    0.35377   0.35442   0.35550   0.35876   0.36142
 Alpha virt. eigenvalues --    0.36478   0.36583   0.36731   0.37157   0.37346
 Alpha virt. eigenvalues --    0.37521   0.37683   0.37987   0.38091   0.38346
 Alpha virt. eigenvalues --    0.38445   0.38543   0.38877   0.39051   0.39239
 Alpha virt. eigenvalues --    0.39399   0.39865   0.39975   0.40063   0.40296
 Alpha virt. eigenvalues --    0.40789   0.40872   0.40971   0.41242   0.41341
 Alpha virt. eigenvalues --    0.41504   0.41678   0.41836   0.42052   0.42110
 Alpha virt. eigenvalues --    0.42419   0.42549   0.42767   0.42830   0.43239
 Alpha virt. eigenvalues --    0.43376   0.43429   0.43511   0.43666   0.43807
 Alpha virt. eigenvalues --    0.44019   0.44137   0.44397   0.44497   0.44608
 Alpha virt. eigenvalues --    0.44733   0.44956   0.45200   0.45289   0.45497
 Alpha virt. eigenvalues --    0.45589   0.45790   0.45970   0.46165   0.46244
 Alpha virt. eigenvalues --    0.46576   0.46678   0.46707   0.46920   0.47004
 Alpha virt. eigenvalues --    0.47337   0.47527   0.47650   0.47826   0.47999
 Alpha virt. eigenvalues --    0.48209   0.48289   0.48315   0.48633   0.48981
 Alpha virt. eigenvalues --    0.49011   0.49232   0.49395   0.49580   0.49822
 Alpha virt. eigenvalues --    0.50081   0.50150   0.50392   0.50444   0.50700
 Alpha virt. eigenvalues --    0.50721   0.50953   0.51014   0.51173   0.51299
 Alpha virt. eigenvalues --    0.51464   0.51639   0.51819   0.52016   0.52252
 Alpha virt. eigenvalues --    0.52454   0.52674   0.52799   0.52971   0.53067
 Alpha virt. eigenvalues --    0.53204   0.53272   0.53542   0.53833   0.53967
 Alpha virt. eigenvalues --    0.54146   0.54297   0.54540   0.54951   0.55096
 Alpha virt. eigenvalues --    0.55170   0.55324   0.55642   0.55896   0.56220
 Alpha virt. eigenvalues --    0.56327   0.56486   0.56792   0.56905   0.57033
 Alpha virt. eigenvalues --    0.57258   0.57410   0.57659   0.57831   0.57916
 Alpha virt. eigenvalues --    0.58141   0.58545   0.58673   0.58920   0.59195
 Alpha virt. eigenvalues --    0.59360   0.59741   0.59861   0.59997   0.60060
 Alpha virt. eigenvalues --    0.60616   0.60787   0.61029   0.61393   0.61744
 Alpha virt. eigenvalues --    0.61830   0.62107   0.62192   0.62740   0.62908
 Alpha virt. eigenvalues --    0.63071   0.63627   0.63680   0.63720   0.63907
 Alpha virt. eigenvalues --    0.64328   0.64787   0.64951   0.65099   0.65331
 Alpha virt. eigenvalues --    0.65565   0.66035   0.66265   0.66390   0.66541
 Alpha virt. eigenvalues --    0.66752   0.67356   0.67445   0.67637   0.67953
 Alpha virt. eigenvalues --    0.68093   0.68213   0.68575   0.69055   0.69230
 Alpha virt. eigenvalues --    0.69461   0.69842   0.70365   0.70494   0.70961
 Alpha virt. eigenvalues --    0.71337   0.71401   0.71869   0.72119   0.72306
 Alpha virt. eigenvalues --    0.72677   0.72718   0.72948   0.73083   0.73347
 Alpha virt. eigenvalues --    0.73526   0.73679   0.73825   0.74156   0.74639
 Alpha virt. eigenvalues --    0.74912   0.75400   0.75880   0.76255   0.76360
 Alpha virt. eigenvalues --    0.76518   0.77081   0.77513   0.77598   0.77965
 Alpha virt. eigenvalues --    0.78326   0.78610   0.78785   0.79150   0.79182
 Alpha virt. eigenvalues --    0.79344   0.79585   0.79771   0.80312   0.80744
 Alpha virt. eigenvalues --    0.81067   0.81255   0.81464   0.81679   0.82439
 Alpha virt. eigenvalues --    0.82808   0.82932   0.83223   0.83734   0.83797
 Alpha virt. eigenvalues --    0.84008   0.84213   0.84404   0.85097   0.85228
 Alpha virt. eigenvalues --    0.85367   0.85919   0.86187   0.86682   0.87111
 Alpha virt. eigenvalues --    0.87286   0.87363   0.87770   0.88146   0.88293
 Alpha virt. eigenvalues --    0.88439   0.88886   0.89388   0.89540   0.89861
 Alpha virt. eigenvalues --    0.90036   0.90247   0.90484   0.90969   0.91199
 Alpha virt. eigenvalues --    0.91337   0.91472   0.91838   0.91962   0.92428
 Alpha virt. eigenvalues --    0.92482   0.92687   0.92869   0.93085   0.93628
 Alpha virt. eigenvalues --    0.94045   0.94227   0.94408   0.94556   0.94619
 Alpha virt. eigenvalues --    0.94979   0.95349   0.95567   0.95614   0.95981
 Alpha virt. eigenvalues --    0.96181   0.96543   0.96769   0.97246   0.97685
 Alpha virt. eigenvalues --    0.97857   0.97951   0.98023   0.98348   0.98894
 Alpha virt. eigenvalues --    0.99211   0.99571   1.00001   1.00064   1.00293
 Alpha virt. eigenvalues --    1.00650   1.00893   1.01351   1.01597   1.01607
 Alpha virt. eigenvalues --    1.01754   1.02087   1.02387   1.02709   1.03063
 Alpha virt. eigenvalues --    1.03594   1.03762   1.04006   1.04308   1.04458
 Alpha virt. eigenvalues --    1.04603   1.04842   1.05103   1.05197   1.05713
 Alpha virt. eigenvalues --    1.06021   1.06234   1.06483   1.06767   1.06810
 Alpha virt. eigenvalues --    1.07475   1.07654   1.07775   1.08051   1.08605
 Alpha virt. eigenvalues --    1.08888   1.09067   1.09234   1.09830   1.09923
 Alpha virt. eigenvalues --    1.10038   1.10209   1.10314   1.10707   1.11443
 Alpha virt. eigenvalues --    1.11760   1.11981   1.12541   1.12801   1.12984
 Alpha virt. eigenvalues --    1.13558   1.14086   1.14394   1.14603   1.14994
 Alpha virt. eigenvalues --    1.15659   1.15822   1.16507   1.16566   1.16651
 Alpha virt. eigenvalues --    1.16964   1.17311   1.17633   1.18052   1.18449
 Alpha virt. eigenvalues --    1.18644   1.19134   1.19483   1.19617   1.20318
 Alpha virt. eigenvalues --    1.20413   1.20928   1.21399   1.21566   1.21640
 Alpha virt. eigenvalues --    1.22446   1.22637   1.23063   1.23475   1.23586
 Alpha virt. eigenvalues --    1.23875   1.24304   1.24497   1.24696   1.24886
 Alpha virt. eigenvalues --    1.25364   1.25818   1.26063   1.26101   1.26441
 Alpha virt. eigenvalues --    1.27031   1.27213   1.27461   1.27847   1.27909
 Alpha virt. eigenvalues --    1.28730   1.28940   1.29215   1.29409   1.29884
 Alpha virt. eigenvalues --    1.30042   1.30662   1.30951   1.31175   1.31600
 Alpha virt. eigenvalues --    1.31857   1.32058   1.32494   1.33034   1.33197
 Alpha virt. eigenvalues --    1.33565   1.33939   1.34281   1.34435   1.34909
 Alpha virt. eigenvalues --    1.35202   1.35452   1.35852   1.36058   1.36772
 Alpha virt. eigenvalues --    1.37017   1.37384   1.37685   1.38237   1.38486
 Alpha virt. eigenvalues --    1.38834   1.39150   1.39861   1.40671   1.40969
 Alpha virt. eigenvalues --    1.41161   1.41315   1.42132   1.42785   1.43224
 Alpha virt. eigenvalues --    1.43402   1.44104   1.44558   1.45091   1.45348
 Alpha virt. eigenvalues --    1.45399   1.45712   1.46491   1.46648   1.47011
 Alpha virt. eigenvalues --    1.47389   1.47594   1.48357   1.48446   1.48607
 Alpha virt. eigenvalues --    1.48650   1.49288   1.49528   1.49781   1.50171
 Alpha virt. eigenvalues --    1.50429   1.50805   1.50886   1.51251   1.51579
 Alpha virt. eigenvalues --    1.51860   1.51958   1.52250   1.52602   1.52895
 Alpha virt. eigenvalues --    1.53156   1.53261   1.53707   1.54009   1.54300
 Alpha virt. eigenvalues --    1.54435   1.54993   1.55111   1.55392   1.55530
 Alpha virt. eigenvalues --    1.55921   1.56187   1.56279   1.56616   1.56939
 Alpha virt. eigenvalues --    1.57331   1.57616   1.57730   1.58126   1.58185
 Alpha virt. eigenvalues --    1.58461   1.58740   1.58964   1.59344   1.59485
 Alpha virt. eigenvalues --    1.59746   1.59802   1.59915   1.60147   1.60470
 Alpha virt. eigenvalues --    1.60568   1.60734   1.61164   1.61465   1.61885
 Alpha virt. eigenvalues --    1.61931   1.61997   1.62395   1.62697   1.62879
 Alpha virt. eigenvalues --    1.63185   1.63542   1.63833   1.63960   1.64430
 Alpha virt. eigenvalues --    1.64632   1.65047   1.65286   1.65564   1.65819
 Alpha virt. eigenvalues --    1.65969   1.66150   1.66509   1.66647   1.66980
 Alpha virt. eigenvalues --    1.67136   1.67348   1.67657   1.67695   1.67870
 Alpha virt. eigenvalues --    1.68324   1.68574   1.68735   1.69227   1.69753
 Alpha virt. eigenvalues --    1.69811   1.70225   1.70496   1.70886   1.70917
 Alpha virt. eigenvalues --    1.71483   1.71576   1.71789   1.72014   1.72268
 Alpha virt. eigenvalues --    1.72631   1.72778   1.73044   1.73224   1.73427
 Alpha virt. eigenvalues --    1.73820   1.74286   1.74358   1.74842   1.75024
 Alpha virt. eigenvalues --    1.75304   1.75461   1.75826   1.76341   1.76652
 Alpha virt. eigenvalues --    1.76923   1.76978   1.77938   1.78006   1.78180
 Alpha virt. eigenvalues --    1.78737   1.79497   1.79878   1.80206   1.80423
 Alpha virt. eigenvalues --    1.80843   1.81371   1.81821   1.82331   1.82409
 Alpha virt. eigenvalues --    1.82880   1.83760   1.83818   1.83879   1.84064
 Alpha virt. eigenvalues --    1.84291   1.84748   1.85418   1.85572   1.86115
 Alpha virt. eigenvalues --    1.86174   1.86471   1.86825   1.87324   1.87516
 Alpha virt. eigenvalues --    1.87647   1.88034   1.88303   1.88565   1.89284
 Alpha virt. eigenvalues --    1.89512   1.89785   1.89920   1.90265   1.90844
 Alpha virt. eigenvalues --    1.91168   1.91529   1.91951   1.92297   1.92953
 Alpha virt. eigenvalues --    1.93363   1.93484   1.94087   1.94463   1.94641
 Alpha virt. eigenvalues --    1.94993   1.95160   1.95255   1.95467   1.95661
 Alpha virt. eigenvalues --    1.95991   1.96730   1.96959   1.97117   1.97313
 Alpha virt. eigenvalues --    1.97662   1.98315   1.98529   1.98762   1.99125
 Alpha virt. eigenvalues --    1.99495   1.99797   2.00043   2.00141   2.00682
 Alpha virt. eigenvalues --    2.00910   2.01467   2.01588   2.02112   2.02174
 Alpha virt. eigenvalues --    2.02765   2.02782   2.03100   2.03429   2.03657
 Alpha virt. eigenvalues --    2.04323   2.04493   2.04601   2.05211   2.05631
 Alpha virt. eigenvalues --    2.06177   2.06407   2.06930   2.07093   2.07648
 Alpha virt. eigenvalues --    2.08169   2.08509   2.08848   2.09350   2.09959
 Alpha virt. eigenvalues --    2.10094   2.10435   2.10650   2.11073   2.11351
 Alpha virt. eigenvalues --    2.11586   2.11614   2.12013   2.12264   2.12751
 Alpha virt. eigenvalues --    2.13012   2.13312   2.13465   2.13904   2.14337
 Alpha virt. eigenvalues --    2.14506   2.14934   2.15315   2.15696   2.16038
 Alpha virt. eigenvalues --    2.16409   2.16695   2.16955   2.17351   2.17548
 Alpha virt. eigenvalues --    2.17933   2.18150   2.18617   2.19052   2.19381
 Alpha virt. eigenvalues --    2.19446   2.19860   2.20349   2.20516   2.21051
 Alpha virt. eigenvalues --    2.21169   2.21508   2.22073   2.22533   2.22912
 Alpha virt. eigenvalues --    2.23452   2.23472   2.24085   2.24474   2.24963
 Alpha virt. eigenvalues --    2.25460   2.25538   2.25860   2.26078   2.26885
 Alpha virt. eigenvalues --    2.27051   2.27353   2.28031   2.28390   2.28650
 Alpha virt. eigenvalues --    2.29165   2.29207   2.29471   2.30618   2.30791
 Alpha virt. eigenvalues --    2.31253   2.31514   2.32160   2.32322   2.32769
 Alpha virt. eigenvalues --    2.33101   2.33192   2.34188   2.34387   2.34547
 Alpha virt. eigenvalues --    2.35232   2.35500   2.35608   2.35787   2.36097
 Alpha virt. eigenvalues --    2.36431   2.37160   2.37509   2.37685   2.38154
 Alpha virt. eigenvalues --    2.38292   2.38535   2.38892   2.39543   2.39801
 Alpha virt. eigenvalues --    2.40072   2.40377   2.40553   2.41008   2.41149
 Alpha virt. eigenvalues --    2.41516   2.41735   2.42493   2.42814   2.43038
 Alpha virt. eigenvalues --    2.43655   2.43924   2.44123   2.44534   2.44711
 Alpha virt. eigenvalues --    2.44841   2.45164   2.45677   2.45961   2.46518
 Alpha virt. eigenvalues --    2.46743   2.46965   2.47017   2.47467   2.47897
 Alpha virt. eigenvalues --    2.48136   2.48502   2.48850   2.49186   2.49896
 Alpha virt. eigenvalues --    2.50347   2.50759   2.50864   2.51093   2.51726
 Alpha virt. eigenvalues --    2.51895   2.52151   2.52474   2.53024   2.53286
 Alpha virt. eigenvalues --    2.54050   2.54347   2.54719   2.55267   2.55831
 Alpha virt. eigenvalues --    2.56103   2.56180   2.56435   2.56570   2.57393
 Alpha virt. eigenvalues --    2.57646   2.57959   2.58192   2.58456   2.58861
 Alpha virt. eigenvalues --    2.59076   2.59788   2.59907   2.60124   2.60584
 Alpha virt. eigenvalues --    2.60770   2.60962   2.61325   2.61512   2.61741
 Alpha virt. eigenvalues --    2.62210   2.62671   2.62989   2.63203   2.63702
 Alpha virt. eigenvalues --    2.63863   2.64002   2.64368   2.64606   2.64788
 Alpha virt. eigenvalues --    2.65073   2.65524   2.65752   2.65981   2.66127
 Alpha virt. eigenvalues --    2.66209   2.66760   2.67359   2.67609   2.67712
 Alpha virt. eigenvalues --    2.67801   2.68140   2.68234   2.68722   2.68995
 Alpha virt. eigenvalues --    2.69560   2.69845   2.70021   2.70158   2.70364
 Alpha virt. eigenvalues --    2.70475   2.70899   2.71543   2.71917   2.72098
 Alpha virt. eigenvalues --    2.72455   2.72608   2.72659   2.73158   2.73472
 Alpha virt. eigenvalues --    2.73705   2.74204   2.74443   2.74621   2.74985
 Alpha virt. eigenvalues --    2.75323   2.75365   2.75799   2.76130   2.76547
 Alpha virt. eigenvalues --    2.76923   2.77167   2.77302   2.77576   2.77977
 Alpha virt. eigenvalues --    2.78114   2.78520   2.78829   2.79228   2.79298
 Alpha virt. eigenvalues --    2.79915   2.79958   2.80516   2.80649   2.80947
 Alpha virt. eigenvalues --    2.81244   2.81612   2.81785   2.82483   2.82669
 Alpha virt. eigenvalues --    2.82871   2.83371   2.83871   2.84294   2.84475
 Alpha virt. eigenvalues --    2.85108   2.85237   2.85321   2.85876   2.85967
 Alpha virt. eigenvalues --    2.86393   2.86882   2.87350   2.87441   2.87712
 Alpha virt. eigenvalues --    2.88317   2.88434   2.88758   2.89165   2.89298
 Alpha virt. eigenvalues --    2.89423   2.90091   2.90417   2.90971   2.91102
 Alpha virt. eigenvalues --    2.91284   2.91700   2.91867   2.92285   2.92468
 Alpha virt. eigenvalues --    2.92723   2.92940   2.93544   2.93721   2.94323
 Alpha virt. eigenvalues --    2.94486   2.94808   2.95293   2.95692   2.95867
 Alpha virt. eigenvalues --    2.96065   2.96511   2.96660   2.97033   2.97369
 Alpha virt. eigenvalues --    2.97470   2.97767   2.98443   2.98680   2.98874
 Alpha virt. eigenvalues --    2.99266   2.99529   3.00092   3.00266   3.00653
 Alpha virt. eigenvalues --    3.01190   3.01268   3.01660   3.01795   3.02004
 Alpha virt. eigenvalues --    3.02224   3.02793   3.02994   3.03977   3.04263
 Alpha virt. eigenvalues --    3.04414   3.04598   3.04980   3.05254   3.05619
 Alpha virt. eigenvalues --    3.05841   3.06425   3.06729   3.07008   3.07337
 Alpha virt. eigenvalues --    3.07476   3.07947   3.08106   3.08491   3.08700
 Alpha virt. eigenvalues --    3.08830   3.08930   3.09396   3.09551   3.09653
 Alpha virt. eigenvalues --    3.09983   3.10152   3.10716   3.10911   3.11287
 Alpha virt. eigenvalues --    3.11479   3.11798   3.11952   3.12216   3.12414
 Alpha virt. eigenvalues --    3.12854   3.12995   3.13192   3.13739   3.14077
 Alpha virt. eigenvalues --    3.14148   3.14461   3.14602   3.15042   3.15304
 Alpha virt. eigenvalues --    3.15641   3.15728   3.16035   3.16277   3.16686
 Alpha virt. eigenvalues --    3.16829   3.17221   3.17369   3.17481   3.17705
 Alpha virt. eigenvalues --    3.17930   3.18381   3.18865   3.19061   3.19326
 Alpha virt. eigenvalues --    3.19622   3.20227   3.20297   3.20483   3.20721
 Alpha virt. eigenvalues --    3.21000   3.21513   3.21840   3.22054   3.22264
 Alpha virt. eigenvalues --    3.22373   3.22493   3.22862   3.22997   3.23143
 Alpha virt. eigenvalues --    3.23546   3.23704   3.24101   3.24401   3.24542
 Alpha virt. eigenvalues --    3.24918   3.25129   3.25270   3.25604   3.25701
 Alpha virt. eigenvalues --    3.25879   3.26011   3.26174   3.26628   3.26806
 Alpha virt. eigenvalues --    3.27233   3.27377   3.27507   3.28040   3.28168
 Alpha virt. eigenvalues --    3.28718   3.28748   3.28965   3.29222   3.29373
 Alpha virt. eigenvalues --    3.29598   3.30034   3.30200   3.30405   3.30612
 Alpha virt. eigenvalues --    3.31013   3.31152   3.31327   3.31782   3.31909
 Alpha virt. eigenvalues --    3.32051   3.32558   3.32768   3.33200   3.33291
 Alpha virt. eigenvalues --    3.33433   3.33714   3.34176   3.34530   3.34627
 Alpha virt. eigenvalues --    3.34856   3.34903   3.35258   3.35760   3.35958
 Alpha virt. eigenvalues --    3.36210   3.36553   3.36966   3.37356   3.37492
 Alpha virt. eigenvalues --    3.37535   3.37760   3.37951   3.38148   3.38365
 Alpha virt. eigenvalues --    3.38427   3.38643   3.38823   3.39103   3.39382
 Alpha virt. eigenvalues --    3.39447   3.39605   3.40281   3.40400   3.40481
 Alpha virt. eigenvalues --    3.40968   3.41064   3.41465   3.41671   3.41834
 Alpha virt. eigenvalues --    3.42211   3.42575   3.42926   3.43146   3.43234
 Alpha virt. eigenvalues --    3.43595   3.43982   3.44570   3.44765   3.45193
 Alpha virt. eigenvalues --    3.45553   3.45584   3.45778   3.46061   3.46406
 Alpha virt. eigenvalues --    3.46669   3.46928   3.47079   3.47111   3.47563
 Alpha virt. eigenvalues --    3.48188   3.48391   3.49061   3.49469   3.49553
 Alpha virt. eigenvalues --    3.49709   3.49964   3.50177   3.50356   3.51154
 Alpha virt. eigenvalues --    3.51371   3.51635   3.52102   3.52494   3.52633
 Alpha virt. eigenvalues --    3.52787   3.53016   3.53307   3.53611   3.53750
 Alpha virt. eigenvalues --    3.54197   3.54594   3.54791   3.55052   3.55291
 Alpha virt. eigenvalues --    3.55479   3.55961   3.56334   3.56488   3.57022
 Alpha virt. eigenvalues --    3.57174   3.57527   3.57856   3.58263   3.58804
 Alpha virt. eigenvalues --    3.59001   3.59481   3.59757   3.60024   3.60260
 Alpha virt. eigenvalues --    3.60746   3.61309   3.61451   3.61730   3.62129
 Alpha virt. eigenvalues --    3.62625   3.62716   3.63167   3.63628   3.64116
 Alpha virt. eigenvalues --    3.64382   3.64662   3.65019   3.65109   3.65468
 Alpha virt. eigenvalues --    3.66081   3.66470   3.66847   3.67248   3.67784
 Alpha virt. eigenvalues --    3.67795   3.68130   3.68582   3.69113   3.69458
 Alpha virt. eigenvalues --    3.69939   3.70160   3.70522   3.70770   3.71639
 Alpha virt. eigenvalues --    3.71710   3.71863   3.72546   3.72808   3.72950
 Alpha virt. eigenvalues --    3.73209   3.73526   3.73858   3.74118   3.74687
 Alpha virt. eigenvalues --    3.75334   3.75625   3.76007   3.76468   3.76741
 Alpha virt. eigenvalues --    3.77126   3.77595   3.77716   3.78090   3.78346
 Alpha virt. eigenvalues --    3.78811   3.79305   3.79445   3.80520   3.80756
 Alpha virt. eigenvalues --    3.81339   3.81598   3.82450   3.82844   3.82914
 Alpha virt. eigenvalues --    3.83714   3.84037   3.84738   3.85018   3.85159
 Alpha virt. eigenvalues --    3.85580   3.85851   3.86462   3.86825   3.87536
 Alpha virt. eigenvalues --    3.87976   3.88005   3.88436   3.88749   3.89476
 Alpha virt. eigenvalues --    3.89858   3.90462   3.91062   3.91459   3.91539
 Alpha virt. eigenvalues --    3.92262   3.92655   3.93151   3.93313   3.94266
 Alpha virt. eigenvalues --    3.94732   3.95163   3.95502   3.95774   3.96173
 Alpha virt. eigenvalues --    3.96686   3.97155   3.97338   3.97538   3.98313
 Alpha virt. eigenvalues --    3.98700   3.99591   3.99890   4.00489   4.00929
 Alpha virt. eigenvalues --    4.01205   4.01523   4.02248   4.02837   4.03249
 Alpha virt. eigenvalues --    4.03496   4.04240   4.04939   4.05256   4.05559
 Alpha virt. eigenvalues --    4.06136   4.06939   4.07599   4.07630   4.08230
 Alpha virt. eigenvalues --    4.08727   4.08864   4.09793   4.10087   4.10804
 Alpha virt. eigenvalues --    4.11286   4.11549   4.12363   4.12692   4.12978
 Alpha virt. eigenvalues --    4.13664   4.14452   4.15112   4.15403   4.16289
 Alpha virt. eigenvalues --    4.16551   4.16976   4.18112   4.18601   4.18931
 Alpha virt. eigenvalues --    4.19232   4.19544   4.19916   4.20350   4.20804
 Alpha virt. eigenvalues --    4.21611   4.21842   4.22393   4.22884   4.23042
 Alpha virt. eigenvalues --    4.24220   4.24883   4.25229   4.25576   4.26360
 Alpha virt. eigenvalues --    4.26800   4.27076   4.27636   4.28249   4.28827
 Alpha virt. eigenvalues --    4.29108   4.29703   4.30062   4.30738   4.31018
 Alpha virt. eigenvalues --    4.31546   4.31796   4.32211   4.33133   4.33504
 Alpha virt. eigenvalues --    4.33714   4.34196   4.35122   4.35859   4.36251
 Alpha virt. eigenvalues --    4.36700   4.37056   4.37478   4.38069   4.38171
 Alpha virt. eigenvalues --    4.39038   4.39447   4.39990   4.40187   4.40900
 Alpha virt. eigenvalues --    4.41542   4.41826   4.42386   4.42434   4.42895
 Alpha virt. eigenvalues --    4.43129   4.43476   4.44310   4.44864   4.44985
 Alpha virt. eigenvalues --    4.45429   4.45812   4.46621   4.47001   4.47412
 Alpha virt. eigenvalues --    4.48403   4.48942   4.49663   4.50150   4.50425
 Alpha virt. eigenvalues --    4.51165   4.51586   4.52274   4.53019   4.53225
 Alpha virt. eigenvalues --    4.54441   4.54975   4.55957   4.56477   4.56963
 Alpha virt. eigenvalues --    4.57400   4.58220   4.58609   4.59009   4.59551
 Alpha virt. eigenvalues --    4.60136   4.60154   4.61302   4.61471   4.62132
 Alpha virt. eigenvalues --    4.63200   4.64040   4.64532   4.65411   4.66521
 Alpha virt. eigenvalues --    4.67119   4.67950   4.68511   4.68648   4.69151
 Alpha virt. eigenvalues --    4.70196   4.70313   4.70671   4.72217   4.72635
 Alpha virt. eigenvalues --    4.73024   4.73235   4.73627   4.74494   4.74934
 Alpha virt. eigenvalues --    4.75227   4.76146   4.77717   4.78031   4.78337
 Alpha virt. eigenvalues --    4.78856   4.80133   4.80519   4.80826   4.81730
 Alpha virt. eigenvalues --    4.82620   4.82779   4.83568   4.84408   4.85484
 Alpha virt. eigenvalues --    4.86356   4.86826   4.87891   4.88908   4.89271
 Alpha virt. eigenvalues --    4.89967   4.90485   4.90985   4.91617   4.91977
 Alpha virt. eigenvalues --    4.92463   4.93305   4.94139   4.94414   4.94823
 Alpha virt. eigenvalues --    4.95541   4.95878   4.96042   4.97180   4.97941
 Alpha virt. eigenvalues --    4.98168   5.00421   5.00655   5.01863   5.02597
 Alpha virt. eigenvalues --    5.03416   5.04288   5.05594   5.06420   5.07248
 Alpha virt. eigenvalues --    5.08233   5.09148   5.09592   5.10396   5.11580
 Alpha virt. eigenvalues --    5.12368   5.12991   5.14963   5.15966   5.17326
 Alpha virt. eigenvalues --    5.17843   5.18917   5.19429   5.20420   5.21065
 Alpha virt. eigenvalues --    5.21509   5.21706   5.21978   5.22774   5.23350
 Alpha virt. eigenvalues --    5.23672   5.24373   5.24548   5.25221   5.26661
 Alpha virt. eigenvalues --    5.26959   5.27565   5.28251   5.30059   5.30594
 Alpha virt. eigenvalues --    5.31580   5.32625   5.34338   5.35862   5.36369
 Alpha virt. eigenvalues --    5.36988   5.37420   5.39658   5.41134   5.41250
 Alpha virt. eigenvalues --    5.43212   5.44205   5.45332   5.45909   5.46463
 Alpha virt. eigenvalues --    5.47362   5.48174   5.48945   5.48960   5.51132
 Alpha virt. eigenvalues --    5.52286   5.54241   5.54410   5.56820   5.57444
 Alpha virt. eigenvalues --    5.58110   5.58701   5.59793   5.60068   5.61208
 Alpha virt. eigenvalues --    5.61534   5.62896   5.63901   5.65144   5.66030
 Alpha virt. eigenvalues --    5.66225   5.67215   5.68424   5.72443   5.74977
 Alpha virt. eigenvalues --    5.78109   5.78855   5.80087   5.80595   5.81091
 Alpha virt. eigenvalues --    5.84621   5.88507   5.90550   5.91345   5.92054
 Alpha virt. eigenvalues --    5.94468   5.96874   5.98195   5.98957   6.00051
 Alpha virt. eigenvalues --    6.00935   6.02229   6.05851   6.07287   6.08289
 Alpha virt. eigenvalues --    6.10206   6.10578   6.13586   6.14090   6.14970
 Alpha virt. eigenvalues --    6.18565   6.19342   6.20432   6.26797   6.27118
 Alpha virt. eigenvalues --    6.29568   6.30682   6.31225   6.34590   6.35021
 Alpha virt. eigenvalues --    6.37112   6.42128   6.44426   6.47024   6.48995
 Alpha virt. eigenvalues --    6.51068   6.55647   6.64820   6.68012   6.75007
 Alpha virt. eigenvalues --    6.77176   6.84326   6.84561   6.90378   6.94496
 Alpha virt. eigenvalues --    7.00703   7.01794   7.11752   7.13295   7.14987
 Alpha virt. eigenvalues --    7.16064   7.30986   7.35354   9.20913   9.48843
 Alpha virt. eigenvalues --    9.63973  20.07193  22.35082  22.36545  22.45380
 Alpha virt. eigenvalues --   22.51556  22.51904  22.53919  22.57337  22.58572
 Alpha virt. eigenvalues --   22.58653  22.59250  22.62910  22.67697  22.69039
 Alpha virt. eigenvalues --   22.77392  22.79240  22.79795  22.80821  22.91677
 Alpha virt. eigenvalues --   22.94396  22.95339  22.96511  23.00843  23.05185
 Alpha virt. eigenvalues --   23.09038  23.12611  23.17442  23.18714  23.24143
 Alpha virt. eigenvalues --   23.28819  23.30745  23.38770  23.39947  23.48576
 Alpha virt. eigenvalues --   23.53756  23.54255  23.59201  23.60648  23.73383
 Alpha virt. eigenvalues --   23.78246  23.79056  23.91232  32.46937  32.81765
 Alpha virt. eigenvalues --   32.96686  33.01661  33.03880  33.13862  43.93809
 Alpha virt. eigenvalues --   43.94713  43.95126  43.96990
  Beta  occ. eigenvalues -- -256.41373 -89.01473 -30.15823 -25.99759 -25.99600
  Beta  occ. eigenvalues --  -25.97061 -19.26684 -19.26251 -19.17169 -19.16882
  Beta  occ. eigenvalues --  -14.45322 -14.38621 -14.38497 -14.38230 -14.37532
  Beta  occ. eigenvalues --  -14.37385 -10.35027 -10.34686 -10.28726 -10.26585
  Beta  occ. eigenvalues --  -10.24975 -10.24717 -10.24260 -10.23993 -10.23930
  Beta  occ. eigenvalues --  -10.23928 -10.23928 -10.23859 -10.23824 -10.23398
  Beta  occ. eigenvalues --  -10.23327 -10.23306 -10.23212 -10.23051 -10.22946
  Beta  occ. eigenvalues --  -10.22804 -10.22799 -10.22716 -10.22396 -10.22368
  Beta  occ. eigenvalues --  -10.22182 -10.22181 -10.22150 -10.21688 -10.21645
  Beta  occ. eigenvalues --  -10.21543 -10.21353 -10.21256 -10.21157 -10.21104
  Beta  occ. eigenvalues --  -10.21020 -10.20714 -10.20451 -10.20217 -10.19983
  Beta  occ. eigenvalues --  -10.19329 -10.18589  -7.99386  -5.93064  -5.92748
  Beta  occ. eigenvalues --   -5.92155  -3.46212  -2.23059  -2.21428  -2.18168
  Beta  occ. eigenvalues --   -1.17235  -1.16948  -1.07130  -1.01863  -1.01396
  Beta  occ. eigenvalues --   -0.98503  -0.96838  -0.96328  -0.95284  -0.91278
  Beta  occ. eigenvalues --   -0.84059  -0.83514  -0.83253  -0.83106  -0.82725
  Beta  occ. eigenvalues --   -0.82166  -0.81958  -0.80359  -0.80073  -0.79185
  Beta  occ. eigenvalues --   -0.78325  -0.76698  -0.76246  -0.75976  -0.74198
  Beta  occ. eigenvalues --   -0.73569  -0.73218  -0.72671  -0.71716  -0.70934
  Beta  occ. eigenvalues --   -0.70015  -0.69605  -0.68740  -0.67035  -0.65772
  Beta  occ. eigenvalues --   -0.65366  -0.65243  -0.64662  -0.64081  -0.62886
  Beta  occ. eigenvalues --   -0.62112  -0.61856  -0.60214  -0.58281  -0.57219
  Beta  occ. eigenvalues --   -0.57016  -0.55422  -0.54673  -0.54307  -0.53695
  Beta  occ. eigenvalues --   -0.52376  -0.52161  -0.51906  -0.51053  -0.50846
  Beta  occ. eigenvalues --   -0.50413  -0.50349  -0.49607  -0.49124  -0.48775
  Beta  occ. eigenvalues --   -0.48560  -0.48485  -0.48379  -0.47880  -0.47698
  Beta  occ. eigenvalues --   -0.46467  -0.46343  -0.45743  -0.45662  -0.45491
  Beta  occ. eigenvalues --   -0.45119  -0.44820  -0.44678  -0.44262  -0.44152
  Beta  occ. eigenvalues --   -0.43895  -0.43697  -0.43557  -0.43508  -0.43206
  Beta  occ. eigenvalues --   -0.43146  -0.42953  -0.42795  -0.42743  -0.42561
  Beta  occ. eigenvalues --   -0.41904  -0.41841  -0.41682  -0.41174  -0.40504
  Beta  occ. eigenvalues --   -0.40064  -0.39919  -0.39674  -0.39293  -0.39181
  Beta  occ. eigenvalues --   -0.39137  -0.38844  -0.38503  -0.38355  -0.38265
  Beta  occ. eigenvalues --   -0.38095  -0.38033  -0.37798  -0.37340  -0.37310
  Beta  occ. eigenvalues --   -0.36755  -0.36532  -0.36238  -0.36132  -0.35819
  Beta  occ. eigenvalues --   -0.35605  -0.35126  -0.34516  -0.34294  -0.33776
  Beta  occ. eigenvalues --   -0.32995  -0.32700  -0.32295  -0.32194  -0.31653
  Beta  occ. eigenvalues --   -0.31334  -0.30924  -0.27990  -0.27556  -0.27235
  Beta  occ. eigenvalues --   -0.27068  -0.26978  -0.25741  -0.25636  -0.25311
  Beta  occ. eigenvalues --   -0.24700  -0.23462  -0.22911  -0.22285  -0.21583
  Beta  occ. eigenvalues --   -0.18209  -0.17816
  Beta virt. eigenvalues --   -0.08412  -0.07349  -0.06197  -0.04011  -0.02869
  Beta virt. eigenvalues --   -0.02072  -0.01523  -0.00301   0.00192   0.00557
  Beta virt. eigenvalues --    0.01437   0.01764   0.02124   0.02757   0.03409
  Beta virt. eigenvalues --    0.03813   0.04137   0.04904   0.04969   0.05304
  Beta virt. eigenvalues --    0.05446   0.05682   0.06111   0.06311   0.06628
  Beta virt. eigenvalues --    0.07081   0.07246   0.07553   0.07991   0.08295
  Beta virt. eigenvalues --    0.08479   0.08840   0.08947   0.09332   0.09557
  Beta virt. eigenvalues --    0.10014   0.10226   0.10593   0.10762   0.10876
  Beta virt. eigenvalues --    0.11111   0.11422   0.11586   0.11881   0.11965
  Beta virt. eigenvalues --    0.12279   0.12606   0.12721   0.12859   0.12901
  Beta virt. eigenvalues --    0.13055   0.13372   0.13595   0.13706   0.13842
  Beta virt. eigenvalues --    0.14046   0.14367   0.14515   0.14544   0.14760
  Beta virt. eigenvalues --    0.15003   0.15159   0.15419   0.15591   0.15770
  Beta virt. eigenvalues --    0.15878   0.16206   0.16213   0.16451   0.16601
  Beta virt. eigenvalues --    0.16953   0.16988   0.17355   0.17596   0.17691
  Beta virt. eigenvalues --    0.18093   0.18197   0.18402   0.18853   0.18960
  Beta virt. eigenvalues --    0.19396   0.19427   0.19481   0.19794   0.20198
  Beta virt. eigenvalues --    0.20281   0.20471   0.20661   0.20751   0.20806
  Beta virt. eigenvalues --    0.21184   0.21400   0.21587   0.21727   0.21928
  Beta virt. eigenvalues --    0.22113   0.22397   0.22779   0.22897   0.23171
  Beta virt. eigenvalues --    0.23271   0.23468   0.23557   0.23797   0.23886
  Beta virt. eigenvalues --    0.24113   0.24325   0.24709   0.25121   0.25280
  Beta virt. eigenvalues --    0.25573   0.25717   0.25920   0.26018   0.26202
  Beta virt. eigenvalues --    0.26226   0.26335   0.26800   0.27022   0.27158
  Beta virt. eigenvalues --    0.27570   0.27825   0.27993   0.28311   0.28490
  Beta virt. eigenvalues --    0.28979   0.29034   0.29433   0.29483   0.29688
  Beta virt. eigenvalues --    0.30093   0.30297   0.30425   0.30599   0.30745
  Beta virt. eigenvalues --    0.30848   0.31142   0.31535   0.31735   0.31986
  Beta virt. eigenvalues --    0.32167   0.32273   0.32691   0.32905   0.33129
  Beta virt. eigenvalues --    0.33379   0.33436   0.33634   0.34137   0.34215
  Beta virt. eigenvalues --    0.34381   0.34624   0.34877   0.35086   0.35481
  Beta virt. eigenvalues --    0.35571   0.35690   0.36065   0.36320   0.36610
  Beta virt. eigenvalues --    0.36687   0.36946   0.37323   0.37574   0.37680
  Beta virt. eigenvalues --    0.37947   0.38125   0.38220   0.38470   0.38589
  Beta virt. eigenvalues --    0.38713   0.39067   0.39201   0.39456   0.39579
  Beta virt. eigenvalues --    0.39989   0.40085   0.40275   0.40411   0.40941
  Beta virt. eigenvalues --    0.40991   0.41155   0.41401   0.41475   0.41627
  Beta virt. eigenvalues --    0.41937   0.42019   0.42160   0.42252   0.42548
  Beta virt. eigenvalues --    0.42659   0.42903   0.42955   0.43351   0.43482
  Beta virt. eigenvalues --    0.43584   0.43715   0.43749   0.43910   0.44141
  Beta virt. eigenvalues --    0.44329   0.44552   0.44586   0.44773   0.44880
  Beta virt. eigenvalues --    0.45045   0.45328   0.45389   0.45620   0.45812
  Beta virt. eigenvalues --    0.45882   0.46055   0.46263   0.46375   0.46676
  Beta virt. eigenvalues --    0.46780   0.46837   0.47029   0.47128   0.47442
  Beta virt. eigenvalues --    0.47639   0.47764   0.47935   0.48118   0.48350
  Beta virt. eigenvalues --    0.48363   0.48433   0.48732   0.49052   0.49105
  Beta virt. eigenvalues --    0.49318   0.49449   0.49654   0.49904   0.50171
  Beta virt. eigenvalues --    0.50262   0.50459   0.50538   0.50805   0.50838
  Beta virt. eigenvalues --    0.51057   0.51137   0.51224   0.51426   0.51616
  Beta virt. eigenvalues --    0.51709   0.51901   0.52126   0.52372   0.52530
  Beta virt. eigenvalues --    0.52781   0.52901   0.53046   0.53148   0.53289
  Beta virt. eigenvalues --    0.53395   0.53654   0.53915   0.54042   0.54233
  Beta virt. eigenvalues --    0.54430   0.54665   0.55051   0.55170   0.55295
  Beta virt. eigenvalues --    0.55459   0.55754   0.56000   0.56363   0.56453
  Beta virt. eigenvalues --    0.56610   0.56909   0.57013   0.57149   0.57351
  Beta virt. eigenvalues --    0.57570   0.57800   0.57933   0.58086   0.58287
  Beta virt. eigenvalues --    0.58654   0.58801   0.59001   0.59328   0.59562
  Beta virt. eigenvalues --    0.59877   0.59992   0.60145   0.60178   0.60718
  Beta virt. eigenvalues --    0.60920   0.61148   0.61520   0.61897   0.61942
  Beta virt. eigenvalues --    0.62293   0.62345   0.62883   0.63022   0.63184
  Beta virt. eigenvalues --    0.63723   0.63857   0.63927   0.64025   0.64460
  Beta virt. eigenvalues --    0.64921   0.65086   0.65286   0.65439   0.65662
  Beta virt. eigenvalues --    0.66208   0.66383   0.66543   0.66675   0.66922
  Beta virt. eigenvalues --    0.67518   0.67645   0.67809   0.68108   0.68277
  Beta virt. eigenvalues --    0.68294   0.68741   0.69181   0.69431   0.69758
  Beta virt. eigenvalues --    0.70008   0.70473   0.70636   0.71112   0.71497
  Beta virt. eigenvalues --    0.71548   0.72042   0.72329   0.72487   0.72836
  Beta virt. eigenvalues --    0.72909   0.73161   0.73225   0.73536   0.73711
  Beta virt. eigenvalues --    0.73835   0.73954   0.74345   0.74771   0.75012
  Beta virt. eigenvalues --    0.75602   0.76058   0.76378   0.76479   0.76665
  Beta virt. eigenvalues --    0.77243   0.77710   0.77815   0.78165   0.78440
  Beta virt. eigenvalues --    0.78752   0.78980   0.79261   0.79295   0.79500
[...]
  1621. RY*(   3) H  60                  0.00004     2.14302   
  1622. RY*(   4) H  60                  0.00002     2.06845   
  1623. RY*(   5) H  60                  0.00000     2.96358   
  1624. RY*(   1) H  61                  0.00037     1.01196   
  1625. RY*(   2) H  61                  0.00009     1.81933   
  1626. RY*(   3) H  61                  0.00003     2.03867   
  1627. RY*(   4) H  61                  0.00003     2.16521   
  1628. RY*(   5) H  61                  0.00000     2.92960   
  1629. RY*(   1) H  62                  0.00096     0.64849   
  1630. RY*(   2) H  62                  0.00014     2.25685   
  1631. RY*(   3) H  62                  0.00012     2.17955   
  1632. RY*(   4) H  62                  0.00005     3.06749   
  1633. RY*(   5) H  62                  0.00001     3.22859   
  1634. RY*(   1) H  63                  0.00024     1.42615   
  1635. RY*(   2) H  63                  0.00008     1.93209   
  1636. RY*(   3) H  63                  0.00003     2.12437   
  1637. RY*(   4) H  63                  0.00001     2.41944   
  1638. RY*(   5) H  63                  0.00000     2.31276   
  1639. RY*(   1) H  64                  0.00045     0.97084   
  1640. RY*(   2) H  64                  0.00009     1.80268   
  1641. RY*(   3) H  64                  0.00003     2.14902   
  1642. RY*(   4) H  64                  0.00003     2.01538   
  1643. RY*(   5) H  64                  0.00000     3.00676   
  1644. RY*(   1) H  65                  0.00041     1.00520   
  1645. RY*(   2) H  65                  0.00008     1.76316   
  1646. RY*(   3) H  65                  0.00002     2.00812   
  1647. RY*(   4) H  65                  0.00003     2.18982   
  1648. RY*(   5) H  65                  0.00000     2.97301   
  1649. RY*(   1) H  66                  0.00047     1.12105   
  1650. RY*(   2) H  66                  0.00009     1.69442   
  1651. RY*(   3) H  66                  0.00005     2.07801   
  1652. RY*(   4) H  66                  0.00002     2.46048   
  1653. RY*(   5) H  66                  0.00002     2.27686   
  1654. RY*(   1) H  67                  0.00030     1.25759   
  1655. RY*(   2) H  67                  0.00010     1.61508   
  1656. RY*(   3) H  67                  0.00005     1.78660   
  1657. RY*(   4) H  67                  0.00001     2.98837   
  1658. RY*(   5) H  67                  0.00000     1.96147   
  1659. RY*(   1) H  68                  0.00047     1.41963   
  1660. RY*(   2) H  68                  0.00011     1.37998   
  1661. RY*(   3) H  68                  0.00007     2.12831   
  1662. RY*(   4) H  68                  0.00004     2.68363   
  1663. RY*(   5) H  68                  0.00001     3.06983   
  1664. RY*(   1) H  69                  0.00075     0.62818   
  1665. RY*(   2) H  69                  0.00011     2.22046   
  1666. RY*(   3) H  69                  0.00012     2.30058   
  1667. RY*(   4) H  69                  0.00005     3.12335   
  1668. RY*(   5) H  69                  0.00000     3.23044   
  1669. RY*(   1) H  70                  0.00037     1.03114   
  1670. RY*(   2) H  70                  0.00009     1.80915   
  1671. RY*(   3) H  70                  0.00003     2.06267   
  1672. RY*(   4) H  70                  0.00003     2.13857   
  1673. RY*(   5) H  70                  0.00000     2.95190   
  1674. RY*(   1) H  71                  0.00035     1.01727   
  1675. RY*(   2) H  71                  0.00009     1.80573   
  1676. RY*(   3) H  71                  0.00002     2.13602   
  1677. RY*(   4) H  71                  0.00003     2.09965   
  1678. RY*(   5) H  71                  0.00000     3.01749   
  1679. RY*(   1) H  72                  0.00038     0.99783   
  1680. RY*(   2) H  72                  0.00007     1.71263   
  1681. RY*(   3) H  72                  0.00004     2.14577   
  1682. RY*(   4) H  72                  0.00003     2.13650   
  1683. RY*(   5) H  72                  0.00000     3.04519   
  1684. RY*(   1) H  73                  0.00034     1.24619   
  1685. RY*(   2) H  73                  0.00010     1.65027   
  1686. RY*(   3) H  73                  0.00005     1.73692   
  1687. RY*(   4) H  73                  0.00001     2.82183   
  1688. RY*(   5) H  73                  0.00000     2.12855   
  1689. RY*(   1) H  74                  0.00045     1.18735   
  1690. RY*(   2) H  74                  0.00009     1.78665   
  1691. RY*(   3) H  74                  0.00005     2.18810   
  1692. RY*(   4) H  74                  0.00001     2.05095   
  1693. RY*(   5) H  74                  0.00001     2.42388   
  1694. RY*(   1) H  75                  0.00052     1.46377   
  1695. RY*(   2) H  75                  0.00010     1.29900   
  1696. RY*(   3) H  75                  0.00007     2.16373   
  1697. RY*(   4) H  75                  0.00005     2.64659   
  1698. RY*(   5) H  75                  0.00001     3.09054   
  1699. RY*(   1) H  76                  0.00081     0.63439   
  1700. RY*(   2) H  76                  0.00014     2.24944   
  1701. RY*(   3) H  76                  0.00011     2.17162   
  1702. RY*(   4) H  76                  0.00006     3.02197   
  1703. RY*(   5) H  76                  0.00000     3.18746   
  1704. RY*(   1) H  77                  0.00050     1.06817   
  1705. RY*(   2) H  77                  0.00009     1.64346   
  1706. RY*(   3) H  77                  0.00003     2.15507   
  1707. RY*(   4) H  77                  0.00002     2.08060   
  1708. RY*(   5) H  77                  0.00000     2.97924   
  1709. RY*(   1) H  78                  0.00029     1.19106   
  1710. RY*(   2) H  78                  0.00008     1.85451   
  1711. RY*(   3) H  78                  0.00003     2.19031   
  1712. RY*(   4) H  78                  0.00001     2.43612   
  1713. RY*(   5) H  78                  0.00001     2.39810   
  1714. RY*(   1) H  79                  0.00039     1.01996   
  1715. RY*(   2) H  79                  0.00010     1.83734   
  1716. RY*(   3) H  79                  0.00002     1.97663   
  1717. RY*(   4) H  79                  0.00003     2.22491   
  1718. RY*(   5) H  79                  0.00000     2.96586   
  1719. RY*(   1) H  80                  0.00070     0.71439   
  1720. RY*(   2) H  80                  0.00013     2.28986   
  1721. RY*(   3) H  80                  0.00011     2.31000   
  1722. RY*(   4) H  80                  0.00005     3.09213   
  1723. RY*(   5) H  80                  0.00000     3.28935   
  1724. RY*(   1) H  81                  0.00073     0.56250   
  1725. RY*(   2) H  81                  0.00010     2.30318   
  1726. RY*(   3) H  81                  0.00008     2.72230   
  1727. RY*(   4) H  81                  0.00006     2.49805   
  1728. RY*(   5) H  81                  0.00001     3.11396   
  1729. RY*(   1) H  82                  0.00073     0.57492   
  1730. RY*(   2) H  82                  0.00010     2.30522   
  1731. RY*(   3) H  82                  0.00008     2.69393   
  1732. RY*(   4) H  82                  0.00006     2.40809   
  1733. RY*(   5) H  82                  0.00001     3.13861   
  1734. RY*(   1) H  83                  0.00030     1.51451   
  1735. RY*(   2) H  83                  0.00008     2.20773   
  1736. RY*(   3) H  83                  0.00005     1.76784   
  1737. RY*(   4) H  83                  0.00003     2.43913   
  1738. RY*(   5) H  83                  0.00001     3.11564   
  1739. RY*(   1) H  84                  0.00039     1.27359   
  1740. RY*(   2) H  84                  0.00007     2.10223   
  1741. RY*(   3) H  84                  0.00005     1.97115   
  1742. RY*(   4) H  84                  0.00002     2.51690   
  1743. RY*(   5) H  84                  0.00001     3.06504   
  1744. RY*(   1) H  85                  0.00078     0.81319   
  1745. RY*(   2) H  85                  0.00034     2.09990   
  1746. RY*(   3) H  85                  0.00023     1.84199   
  1747. RY*(   4) H  85                  0.00011     2.16520   
  1748. RY*(   5) H  85                  0.00000     3.25781   
  1844. BD*(   1) C  11 - C  15          0.01079     0.58855   
  1845. BD*(   1) C  11 - C  42          0.01111     0.57425   
  1846. BD*(   2) C  11 - C  42          0.18986     0.06008  1918(v),1861(v),1857(r)
                                                    470(g),1849(r),1834(r)
  1847. BD*(   1) C  11 - H  80          0.00683     0.45884   
  1848. BD*(   1) C  12 - C  18          0.00997     0.56523   
  1849. BD*(   2) C  12 - C  18          0.20205     0.05217  1863(v),1883(v),1861(v)
                                                    496(g),655(g),1846(r)
  1850. BD*(   1) C  12 - C  25          0.01068     0.56653   
  1851. BD*(   1) C  12 - H  62          0.00621     0.45788   
  1852. BD*(   1) C  13 - C  28          0.01115     0.59497   
  1853. BD*(   1) C  13 - C  32          0.01051     0.61999   
  1854. BD*(   1) C  13 - H  69          0.00690     0.46685   
  1855. BD*(   1) C  14 - C  35          0.00964     0.55617   
  1856. BD*(   1) C  14 - C  39          0.00937     0.58088   
  1857. BD*(   2) C  14 - C  39          0.19067     0.05775  1918(v),197(v),1846(r)
                                                    548(g),207(r),1202(g)
  1858. BD*(   1) C  14 - H  76          0.00610     0.45560   
  1859. BD*(   1) C  15 - C  16          0.01628     0.47196   
  1860. BD*(   1) C  15 - N  49          0.01356     0.50435   
  1861. BD*(   2) C  15 - N  49          0.33057     0.00974  1846(v),1863(v),1849(v)
                                                    205(v),575(g),206(v),1460(g)
                                                    470(v),1459(g),1900(r)
                                                    1829(r)
  1862. BD*(   1) C  16 - C  17          0.00930     0.58545   
  1863. BD*(   2) C  16 - C  17          0.12270     0.06888  1849(v),1861(v),1871(v)
                                                    1869(v),1872(v),1870(v)
  1864. BD*(   1) C  16 - C  20          0.01187     0.35856   
  1865. BD*(   1) C  17 - C  18          0.01587     0.48449   
  1866. BD*(   1) C  17 - C  19          0.00855     0.37923   
  1867. BD*(   1) C  18 - N  49          0.01359     0.48413   
  1868. BD*(   1) C  19 - H  59          0.00271     0.41327   
  1869. BD*(   1) C  19 - H  60          0.00481     0.40898   
  1870. BD*(   1) C  19 - H  61          0.00386     0.40856   
  1871. BD*(   1) C  20 - C  21          0.00819     0.34741   
  1872. BD*(   1) C  20 - H  57          0.00665     0.41757   
  1873. BD*(   1) C  20 - H  58          0.00564     0.41592   
  1874. BD*(   1) C  21 - C  22          0.03226     0.33686   
  1875. BD*(   1) C  21 - H  55          0.00471     0.39880   
  1876. BD*(   1) C  21 - H  56          0.00578     0.39656   
  1877. BD*(   1) C  22 - O  23          0.01531     0.54218   
  1878. BD*(   2) C  22 - O  23          0.12078     0.00827  1876(v),1877(g),758(g)
                                                    765(g),1875(v)
  1879. BD*(   1) C  22 - O  24          0.03565     0.49218   
  1880. BD*(   1) O  24 - H  54          0.00714     0.38618   
  1881. BD*(   1) C  25 - C  26          0.01570     0.51899   
  1882. BD*(   1) C  25 - N  50          0.01459     0.51228   
  1883. BD*(   2) C  25 - N  50          0.31665     0.01521  1849(v),1885(v),835(g)
                                                    205(v),1484(g),206(v),496(v)
                                                    837(g),1488(g),836(g)
                                                    1837(r),1843(r)
  1884. BD*(   1) C  26 - C  27          0.01455     0.62173   
  1885. BD*(   2) C  26 - C  27          0.13335     0.08031  1894(v),1883(v),1895(v)
                                                    1893(v),1891(v),1892(v)
  1886. BD*(   1) C  26 - C  29          0.00871     0.39201   
  1887. BD*(   1) C  27 - C  28          0.01999     0.51034   
  1888. BD*(   1) C  27 - C  30          0.01166     0.53415   
  1889. BD*(   1) C  28 - N  50          0.01444     0.50791   
  1890. BD*(   1) C  29 - H  63          0.00264     0.42109   
  1891. BD*(   1) C  29 - H  64          0.00459     0.41305   
  1892. BD*(   1) C  29 - H  65          0.00406     0.41526   
  1893. BD*(   1) C  30 - C  31          0.00457     0.48985   
  1894. BD*(   2) C  30 - C  31          0.01633     0.06936   
  1895. BD*(   1) C  30 - H  68          0.00990     0.45023   
  1896. BD*(   1) C  31 - H  66          0.00351     0.44159   
  1897. BD*(   1) C  31 - H  67          0.00277     0.44347   
  1898. BD*(   1) C  32 - C  33          0.01657     0.50164   
  1899. BD*(   1) C  32 - N  51          0.01417     0.50727   
  1900. BD*(   2) C  32 - N  51          0.34273     0.01400  191(v),1902(v),197(v),205(v)
                                                    1017(g),1512(g),522(v)
                                                    206(v),1861(r),1829(r)
  1901. BD*(   1) C  33 - C  34          0.01434     0.63256   
  1902. BD*(   2) C  33 - C  34          0.12897     0.08382  1900(v),1911(v),197(v)
                                                    1912(v),1908(v),1910(v)
                                                    1907(v)
  1903. BD*(   1) C  33 - C  36          0.00834     0.39859   
  1904. BD*(   1) C  34 - C  35          0.01778     0.50733   
  1905. BD*(   1) C  34 - C  37          0.01131     0.54144   
  1906. BD*(   1) C  35 - N  51          0.01365     0.45329   
  1907. BD*(   1) C  36 - H  70          0.00398     0.41952   
  1908. BD*(   1) C  36 - H  71          0.00400     0.41859   
  1909. BD*(   1) C  36 - H  72          0.00314     0.42669   
  1910. BD*(   1) C  37 - C  38          0.00464     0.48531   
  1911. BD*(   2) C  37 - C  38          0.02180     0.05643   
  1912. BD*(   1) C  37 - H  75          0.00998     0.44760   
  1913. BD*(   1) C  38 - H  73          0.00264     0.44108   
  1914. BD*(   1) C  38 - H  74          0.00326     0.44153   
  1915. BD*(   1) C  39 - C  40          0.01663     0.46830   
  1916. BD*(   1) C  39 - N  52          0.01454     0.44018   
  1917. BD*(   1) C  40 - C  41          0.01029     0.61387   
  1918. BD*(   2) C  40 - C  41          0.11596     0.07705  1846(v),1857(v),1923(v)
                                                    1926(v),1925(v)
  1919. BD*(   1) C  40 - C  43          0.00875     0.40819   
  1920. BD*(   1) C  41 - C  42          0.01770     0.46921   
  1921. BD*(   1) C  41 - C  44          0.01163     0.40535   
  1922. BD*(   1) C  42 - N  52          0.01466     0.47731   
  1923. BD*(   1) C  43 - H  77          0.00548     0.40670   
  1924. BD*(   1) C  43 - H  78          0.00311     0.41411   
  1925. BD*(   1) C  43 - H  79          0.00361     0.40846   
  1926. BD*(   1) C  44 - C  45          0.00664     0.36707   
  1927. BD*(   1) C  44 - H  81          0.00769     0.41199   
  1928. BD*(   1) C  44 - H  82          0.00707     0.40636   
  1929. BD*(   1) C  45 - C  46          0.03439     0.34850   
  1930. BD*(   1) C  45 - H  83          0.00566     0.40763   
  1931. BD*(   1) C  45 - H  84          0.00700     0.40171   
  1932. BD*(   1) C  46 - O  47          0.01984     0.55363   
  1933. BD*(   2) C  46 - O  47          0.10541     0.00936  1935(v),1926(v),1932(g)
  1934. BD*(   1) C  46 - O  48          0.03488     0.50861   
  1935. BD*(   1) O  48 - H  85          0.00762     0.37760   
  1936. BD*(   1) N  49 -Fe  53          0.03875     0.35686   
  1937. BD*(   1) N  50 -Fe  53          0.03503     0.38859   
  1938. BD*(   1) N  51 -Fe  53          0.04313     0.37309   
  1939. BD*(   1) N  52 -Fe  53          0.03458     0.36887   
       -------------------------------
              Total Lewis  154.77549  ( 97.0978%)
        Valence non-Lewis    4.31211  (  2.7052%)
        Rydberg non-Lewis    0.31399  (  0.1970%)
       -------------------------------
            Total unit  3  159.40159  (100.0000%)
           Charge unit  3    1.59841
 1\1\GINC-NODE710\SP\UPBE1PBE\def2TZVP\C41H46Fe1N6O4S1(5)\ZHARTOVSKA\05
 -Mar-2023\0\\# PBE1PBE/def2TZVP guess=read scf=maxcycle=999 empiricald
 ispersion=GD3BJ geom=check pop=nbo\\1c6r_II_Q\\0,5\C,0,8.89,8.219,4.83
 5\C,0,8.542,9.673,4.721\N,0,9.424,10.61,4.23\C,0,7.431,10.356,5.086\C,
 0,8.878,11.811,4.304\N,0,7.668,11.684,4.819\C,0,4.888,17.037001,4.584\
 C,0,4.631,16.620001,6.026\S,0,4.631,14.848,6.261\C,0,4.365,14.756,8.06
 3\C,0,8.735,15.487,5.374\C,0,7.2,12.459,8.761\C,0,3.75,11.022,5.782\C,
 0,5.717,13.521,2.146\C,0,8.67,14.779,6.56\C,0,9.56,14.991,7.706\C,0,9.
 051,14.192,8.704\C,0,7.94,13.454,8.12\C,0,9.493,14.114,10.165\C,0,10.8
 15,15.92,7.701\C,0,11.998,15.412,6.85\C,0,13.116,16.438999,6.68\O,0,14
 .251,16.030001,6.325\O,0,12.866,17.65,6.869\C,0,6.098,11.782,8.238\C,0
 ,5.333,10.788,8.931\C,0,4.295,10.442,8.131\C,0,4.479,11.225,6.939\C,0,
 5.678,10.242,10.31\C,0,3.22,9.557,8.391\C,0,2.224,9.871,9.331\C,0,4.,1
 1.535,4.54\C,0,3.264,11.197,3.338\C,0,3.857,11.84,2.313\C,0,4.947,12.6
 ,2.87\C,0,2.19,10.125,3.253\C,0,3.625,11.653,0.936\C,0,2.443,12.128,0.
 328\C,0,6.634,14.375,2.733\C,0,7.324,15.495,2.068\C,0,8.118,16.086,2.9
 95\C,0,7.947,15.317,4.238\C,0,7.232,15.862,0.614\C,0,9.001,17.297001,2
 .816\C,0,8.309,18.487,3.442\C,0,8.967,19.802999,3.062\O,0,9.935,20.219
 999,3.735\O,0,8.548,20.422001,2.068\N,0,7.704,13.845,6.815\N,0,5.584,1
 2.017,7.002\N,0,5.036,12.387,4.26\N,0,6.991,14.326,4.102\Fe,0,6.33,13.
 14,5.558\H,0,13.58468023,18.27886097,6.96714585\H,0,12.40431272,14.539
 0858,7.31672344\H,0,11.63122057,15.14310058,5.88146195\H,0,10.52155682
 ,16.87983182,7.33017123\H,0,11.15175042,16.03592022,8.70999042\H,0,10.
 43246649,14.61295289,10.28053668\H,0,8.75982497,14.58601378,10.7851268
 9\H,0,9.59614573,13.08842677,10.45215936\H,0,7.50791538,12.18931582,9.
 74961447\H,0,6.60974084,10.65596075,10.63464673\H,0,4.90787415,10.5102
 2619,11.00271992\H,0,5.7588075,9.17615311,10.26162065\H,0,2.44773403,1
 0.52173565,10.15038159\H,0,1.24178262,9.45938383,9.22745699\H,0,3.1652
 7293,8.62954242,7.86022002\H,0,2.89076353,10.39027893,5.86883994\H,0,2
 .55611562,9.21811778,3.68707832\H,0,1.31980188,10.44899944,3.78467621\
 H,0,1.93795875,9.95316709,2.22740327\H,0,2.4623702,12.4673844,-0.68656
 544\H,0,1.52762269,12.14868727,0.88167537\H,0,4.35527065,11.14361116,0
 .34259644\H,0,5.5890079,13.56591299,1.08463256\H,0,8.08217155,15.47315
 201,0.0935141\H,0,6.33814784,15.44696689,0.19725567\H,0,7.2101597,16.9
 2725257,0.51571492\H,0,9.47769304,16.25556691,5.32289285\H,0,9.9416685
 5,17.13191877,3.29848372\H,0,9.15742727,17.47828317,1.77313506\H,0,8.3
 3418803,18.38182338,4.50652029\H,0,7.28899129,18.50382819,3.11920122\H
 ,0,9.16906913,20.80896693,1.44660599\H,0,5.80931057,16.60915603,4.2477
 9245\H,0,4.0870674,16.69106919,3.96453398\H,0,4.94818898,18.10375995,4
 .52653141\H,0,5.39006379,17.04799101,6.64692408\H,0,3.68049601,17.0059
 7242,6.33008589\H,0,5.17729152,15.2352587,8.5683648\H,0,3.44867207,15.
 24825227,8.31386016\H,0,4.31298179,13.73051525,8.36395704\H,0,9.822574
 76,8.11470751,5.3491278\H,0,8.12298422,7.71041323,5.38082625\H,0,8.972
 77949,7.79428115,3.85639821\H,0,10.33673412,10.41196317,3.87265164\H,0
 ,9.33680581,12.72836708,3.99931186\H,0,6.53752333,9.94074347,5.5033265
 5\\Version=ES64L-G16RevA.03\State=5-A\HF=-3879.374987\S2=6.083475\S2-1
 =0.\S2A=6.002298\RMSD=4.268e-09\Dipole=0.0947128,-0.8542824,-0.5835605
 \Quadrupole=-23.4205144,9.1158991,14.3046152,-12.1536411,-4.9204598,-2
 .2259791\PG=C01 [X(C41H46Fe1N6O4S1)]\\@


 ROSE IS A RED
 TY COBB IS BLUE
 'CAUSE PETE JUST HIT
 NO. 4592.
 Job cpu time:       8 days  5 hours 56 minutes 56.6 seconds.
 Elapsed time:       2 days  1 hours 37 minutes 26.3 seconds.
 File lengths (MBytes):  RWF=   3465 Int=      0 D2E=      0 Chk=    312 Scr=      1
 Normal termination of Gaussian 16 at Sun Mar  5 15:42:53 2023.
