 Initial command:
 /afs/math/software/gaussian/g16.A03/g16/l1.exe "/scratch/zhartovska_gaussian.CSM3LdB/Gau-18765.inp" -scrdir="/scratch/zhartovska_gaussian.CSM3LdB/"
 Entering Link 1 = /afs/math/software/gaussian/g16.A03/g16/l1.exe PID=     31629.
  
 Copyright (c) 1988,1990,1992,1993,1995,1998,2003,2009,2016,
            Gaussian, Inc.  All Rights Reserved.
  
 This is part of the Gaussian(R) 16 program.  It is based on
 the Gaussian(R) 09 system (copyright 2009, Gaussian, Inc.),
 the Gaussian(R) 03 system (copyright 2003, Gaussian, Inc.),
 the Gaussian(R) 98 system (copyright 1998, Gaussian, Inc.),
 the Gaussian(R) 94 system (copyright 1995, Gaussian, Inc.),
 the Gaussian 92(TM) system (copyright 1992, Gaussian, Inc.),
 the Gaussian 90(TM) system (copyright 1990, Gaussian, Inc.),
 the Gaussian 88(TM) system (copyright 1988, Gaussian, Inc.),
 the Gaussian 86(TM) system (copyright 1986, Carnegie Mellon
 University), and the Gaussian 82(TM) system (copyright 1983,
 Carnegie Mellon University). Gaussian is a federally registered
 trademark of Gaussian, Inc.
  
 This software contains proprietary and confidential information,
 including trade secrets, belonging to Gaussian, Inc.
  
 This software is provided under written license and may be
 used, copied, transmitted, or stored only in accord with that
 written license.
  
 The following legend is applicable only to US Government
 contracts under FAR:
  
                    RESTRICTED RIGHTS LEGEND
  
 Use, reproduction and disclosure by the US Government is
 subject to restrictions as set forth in subparagraphs (a)
 and (c) of the Commercial Computer Software - Restricted
 Rights clause in FAR 52.227-19.
  
 Gaussian, Inc.
 340 Quinnipiac St., Bldg. 40, Wallingford CT 06492
  
  
 ---------------------------------------------------------------
 Warning -- This program may not be used in any manner that
 competes with the business of Gaussian, Inc. or will provide
 assistance to any competitor of Gaussian, Inc.  The licensee
 of this program is prohibited from giving any competitor of
 Gaussian, Inc. access to this program.  By using this program,
 the user acknowledges that Gaussian, Inc. is engaged in the
 business of creating and licensing software in the field of
 computational chemistry and represents and warrants to the
 licensee that it is not a competitor of Gaussian, Inc. and that
 it will not use this program in any manner prohibited above.
 ---------------------------------------------------------------
  

 Cite this work as:
 Gaussian 16, Revision A.03,
 M. J. Frisch, G. W. Trucks, H. B. Schlegel, G. E. Scuseria, 
 M. A. Robb, J. R. Cheeseman, G. Scalmani, V. Barone, 
 G. A. Petersson, H. Nakatsuji, X. Li, M. Caricato, A. V. Marenich, 
 J. Bloino, B. G. Janesko, R. Gomperts, B. Mennucci, H. P. Hratchian, 
 J. V. Ortiz, A. F. Izmaylov, J. L. Sonnenberg, D. Williams-Young, 
 F. Ding, F. Lipparini, F. Egidi, J. Goings, B. Peng, A. Petrone, 
 T. Henderson, D. Ranasinghe, V. G. Zakrzewski, J. Gao, N. Rega, 
 G. Zheng, W. Liang, M. Hada, M. Ehara, K. Toyota, R. Fukuda, 
 J. Hasegawa, M. Ishida, T. Nakajima, Y. Honda, O. Kitao, H. Nakai, 
 T. Vreven, K. Throssell, J. A. Montgomery, Jr., J. E. Peralta, 
 F. Ogliaro, M. J. Bearpark, J. J. Heyd, E. N. Brothers, K. N. Kudin, 
 V. N. Staroverov, T. A. Keith, R. Kobayashi, J. Normand, 
 K. Raghavachari, A. P. Rendell, J. C. Burant, S. S. Iyengar, 
 J. Tomasi, M. Cossi, J. M. Millam, M. Klene, C. Adamo, R. Cammi, 
 J. W. Ochterski, R. L. Martin, K. Morokuma, O. Farkas, 
 J. B. Foresman, and D. J. Fox, Gaussian, Inc., Wallingford CT, 2016.
 
 ******************************************
 Gaussian 16:  ES64L-G16RevA.03 25-Dec-2016
                16-Jan-2023 
 ******************************************
 %nprocs=12
 Will use up to   12 processors via shared memory.
 %mem=16GB
 %chk=1c6r_II_S.chk
 ----------------------------------------------------------------------
 # PBE1PBE/def2TZVP empiricaldispersion=GD3BJ int=(grid=ultrafine) geom
 =check guess=read pop=nbo scf=qc
 ----------------------------------------------------------------------
 1/29=2,38=1,172=1/1;
 2/12=2,40=1/2;
 3/5=44,7=101,11=2,14=-4,25=1,30=1,74=-13,75=-5,116=-2,124=41/1,2,3;
 4/5=1/1;
 5/5=2,8=3,38=6/8;
 6/7=2,8=2,9=2,10=2,28=1,40=1/1,7;
 99/5=1,9=1/99;
 -------------
 1c6r_II_S_nbo
 -------------
 Structure from the checkpoint file:  "1c6r_II_S.chk"
 Charge =  0 Multiplicity = 1
 Z-Matrix found in chk file.
 C,0,8.89,8.219,4.835
 C,0,8.542,9.673,4.721
 N,0,9.424,10.61,4.23
 C,0,7.431,10.356,5.086
 C,0,8.878,11.811,4.304
 N,0,7.668,11.684,4.819
 C,0,4.888,17.037001,4.584
 C,0,4.631,16.620001,6.026
 S,0,4.631,14.848,6.261
 C,0,4.365,14.756,8.063
 C,0,8.735,15.487,5.374
 C,0,7.2,12.459,8.761
 C,0,3.75,11.022,5.782
 C,0,5.717,13.521,2.146
 C,0,8.67,14.779,6.56
 C,0,9.56,14.991,7.706
 C,0,9.051,14.192,8.704
 C,0,7.94,13.454,8.12
 C,0,9.493,14.114,10.165
 C,0,10.815,15.92,7.701
 C,0,11.998,15.412,6.85
 C,0,13.116,16.438999,6.68
 O,0,14.251,16.030001,6.325
 O,0,12.866,17.65,6.869
 C,0,6.098,11.782,8.238
 C,0,5.333,10.788,8.931
 C,0,4.295,10.442,8.131
 C,0,4.479,11.225,6.939
 C,0,5.678,10.242,10.31
 C,0,3.22,9.557,8.391
 C,0,2.224,9.871,9.331
 C,0,4.,11.535,4.54
 C,0,3.264,11.197,3.338
 C,0,3.857,11.84,2.313
 C,0,4.947,12.6,2.87
 C,0,2.19,10.125,3.253
 C,0,3.625,11.653,0.936
 C,0,2.443,12.128,0.328
 C,0,6.634,14.375,2.733
 C,0,7.324,15.495,2.068
 C,0,8.118,16.086,2.995
 C,0,7.947,15.317,4.238
 C,0,7.232,15.862,0.614
 C,0,9.001,17.297001,2.816
 C,0,8.309,18.487,3.442
 C,0,8.967,19.802999,3.062
 O,0,9.935,20.219999,3.735
 O,0,8.548,20.422001,2.068
 N,0,7.704,13.845,6.815
 N,0,5.584,12.017,7.002
 N,0,5.036,12.387,4.26
 N,0,6.991,14.326,4.102
 Fe,0,6.33,13.14,5.558
 H,0,13.58468023,18.27886097,6.96714585
 H,0,12.40431272,14.5390858,7.31672344
 H,0,11.63122057,15.14310058,5.88146195
 H,0,10.52155682,16.87983182,7.33017123
 H,0,11.15175042,16.03592022,8.70999042
 H,0,10.43246649,14.61295289,10.28053668
 H,0,8.75982497,14.58601378,10.78512689
 H,0,9.59614573,13.08842677,10.45215936
 H,0,7.50791538,12.18931582,9.74961447
 H,0,6.60974084,10.65596075,10.63464673
 H,0,4.90787415,10.51022619,11.00271992
 H,0,5.7588075,9.17615311,10.26162065
 H,0,2.44773403,10.52173565,10.15038159
 H,0,1.24178262,9.45938383,9.22745699
 H,0,3.16527293,8.62954242,7.86022002
 H,0,2.89076353,10.39027893,5.86883994
 H,0,2.55611562,9.21811778,3.68707832
 H,0,1.31980188,10.44899944,3.78467621
 H,0,1.93795875,9.95316709,2.22740327
 H,0,2.4623702,12.4673844,-0.68656544
 H,0,1.52762269,12.14868727,0.88167537
 H,0,4.35527065,11.14361116,0.34259644
 H,0,5.5890079,13.56591299,1.08463256
 H,0,8.08217155,15.47315201,0.0935141
 H,0,6.33814784,15.44696689,0.19725567
 H,0,7.2101597,16.92725257,0.51571492
 H,0,9.47769304,16.25556691,5.32289285
 H,0,9.94166855,17.13191877,3.29848372
 H,0,9.15742727,17.47828317,1.77313506
 H,0,8.33418803,18.38182338,4.50652029
 H,0,7.28899129,18.50382819,3.11920122
 H,0,9.16906913,20.80896693,1.44660599
 H,0,5.80931057,16.60915603,4.24779245
 H,0,4.0870674,16.69106919,3.96453398
 H,0,4.94818898,18.10375995,4.52653141
 H,0,5.39006379,17.04799101,6.64692408
 H,0,3.68049601,17.00597242,6.33008589
 H,0,5.17729152,15.2352587,8.5683648
 H,0,3.44867207,15.24825227,8.31386016
 H,0,4.31298179,13.73051525,8.36395704
 H,0,9.82257476,8.11470751,5.3491278
 H,0,8.12298422,7.71041323,5.38082625
 H,0,8.97277949,7.79428115,3.85639821
 H,0,10.33673412,10.41196317,3.87265164
 H,0,9.33680581,12.72836708,3.99931186
 H,0,6.53752333,9.94074347,5.50332655
 Recover connectivity data from disk.
 Stoichiometry    C41H46FeN6O4S
 Framework group  C1[X(C41H46FeN6O4S)]
 Deg. of freedom   291
 Full point group                 C1      NOp   1
 Largest Abelian subgroup         C1      NOp   1
 Largest concise Abelian subgroup C1      NOp   1
                         Standard orientation:                         
 ---------------------------------------------------------------------
 Center     Atomic      Atomic             Coordinates (Angstroms)
 Number     Number       Type             X           Y           Z
 ---------------------------------------------------------------------
      1          6           0        2.736242   -1.776043    4.898489
      2          6           0        1.883989   -1.152163    3.834226
      3          7           0        0.549537   -0.869223    4.024381
      4          6           0        2.163217   -0.809694    2.554077
      5          6           0        0.037210   -0.387008    2.905909
      6          7           0        0.996331   -0.339799    1.998544
      7          6           0       -1.121194    2.447425   -2.919353
      8          6           0       -0.477081    1.206254   -3.522607
      9         16           0        0.855251    0.546857   -2.529984
     10          6           0        1.307309   -0.917554   -3.518704
     11          6           0       -2.452476   -0.302014   -0.004859
     12          6           0        1.190179   -3.341197   -0.705720
     13          6           0        4.205773    0.356876   -0.436711
     14          6           0        0.636291    3.287494    0.979221
     15          6           0       -1.751367   -1.480337   -0.183986
     16          6           0       -2.369027   -2.801194   -0.339528
     17          6           0       -1.326576   -3.648109   -0.638721
     18          6           0       -0.109593   -2.852222   -0.564296
     19          6           0       -1.395852   -5.121432   -1.039331
     20          6           0       -3.890341   -3.101707   -0.156806
     21          6           0       -4.402298   -3.010647    1.296247
     22          6           0       -5.923453   -3.084036    1.415627
     23          8           0       -6.419370   -3.374962    2.534089
     24          8           0       -6.627206   -2.826887    0.413953
     25          6           0        2.363236   -2.586173   -0.693935
     26          6           0        3.684907   -3.108953   -0.876683
     27          6           0        4.539660   -2.057220   -0.897027
     28          6           0        3.703305   -0.905992   -0.689675
     29          6           0        4.015606   -4.589969   -1.003218
     30          6           0        5.937894   -2.043612   -1.123315
     31          6           0        6.478357   -2.342578   -2.385349
     32          6           0        3.518583    1.453110    0.004053
     33          6           0        4.119993    2.723094    0.359285
     34          6           0        3.133375    3.516717    0.820229
     35          6           0        1.911080    2.758917    0.732570
     36          6           0        5.615681    2.986007    0.419954
     37          6           0        3.267557    4.758189    1.472659
     38          6           0        3.635550    5.918056    0.757325
     39          6           0       -0.536506    2.603013    0.713125
     40          6           0       -1.897794    3.166591    0.757848
     41          6           0       -2.755821    2.174098    0.414640
     42          6           0       -1.932585    0.976801    0.181374
     43          6           0       -2.273862    4.556564    1.186588
     44          6           0       -4.256939    2.257772    0.280854
     45          6           0       -4.600448    2.323799   -1.190363
     46          6           0       -6.052051    2.705642   -1.427561
     47          8           0       -6.927044    1.812214   -1.431703
     48          8           0       -6.342982    3.905097   -1.580619
     49          7           0       -0.390255   -1.522294   -0.311070
     50          7           0        2.390691   -1.235478   -0.545656
     51          7           0        2.168352    1.465181    0.237144
     52          7           0       -0.581066    1.253457    0.288007
     53         26           0        0.900382   -0.022733   -0.086298
     54          1           0       -7.558144   -3.061246    0.408417
     55          1           0       -3.976441   -3.814701    1.859312
     56          1           0       -4.071037   -2.084546    1.717558
     57          1           0       -4.444431   -2.407006   -0.752856
     58          1           0       -4.084250   -4.089127   -0.520538
     59          1           0       -2.376239   -5.500001   -0.838268
     60          1           0       -1.183695   -5.217435   -2.083684
     61          1           0       -0.676122   -5.678309   -0.476503
     62          1           0        1.297200   -4.397853   -0.835818
     63          1           0        3.126999   -5.167652   -0.856384
     64          1           0        4.410848   -4.785133   -1.978203
     65          1           0        4.741345   -4.857795   -0.263980
     66          1           0        5.944017   -2.979497   -3.058932
     67          1           0        7.424277   -1.933331   -2.672842
     68          1           0        6.596599   -1.800465   -0.315919
     69          1           0        5.253742    0.491703   -0.605477
     70          1           0        6.089599    2.218821    0.995911
     71          1           0        6.018030    2.987664   -0.571516
     72          1           0        5.792415    3.936636    0.878179
     73          1           0        3.256084    6.873171    1.055084
     74          1           0        4.293970    5.842170   -0.082690
     75          1           0        3.087938    4.822748    2.525498
     76          1           0        0.566579    4.271059    1.394719
     77          1           0       -2.613809    4.537223    2.200966
     78          1           0       -1.420296    5.197070    1.108631
     79          1           0       -3.055310    4.925316    0.555509
     80          1           0       -3.519477   -0.381915   -0.009894
     81          1           0       -4.706814    1.390762    0.717667
     82          1           0       -4.614533    3.137171    0.774498
     83          1           0       -4.417467    1.366561   -1.632078
     84          1           0       -3.970141    3.049130   -1.661010
     85          1           0       -7.113335    4.272077   -1.140754
     86          1           0       -1.458655    2.228068   -1.927939
     87          1           0       -0.403746    3.240496   -2.884612
     88          1           0       -1.953732    2.745753   -3.521667
     89          1           0       -1.226906    0.451216   -3.634769
     90          1           0       -0.093008    1.455220   -4.489769
     91          1           0        0.470968   -1.582677   -3.573893
     92          1           0        1.584199   -0.610067   -4.505458
     93          1           0        2.131968   -1.419047   -3.056814
     94          1           0        2.250615   -2.651209    5.276841
     95          1           0        3.684772   -2.045819    4.483264
     96          1           0        2.881521   -1.076311    5.694836
     97          1           0        0.046076   -1.007408    4.877278
     98          1           0       -0.979338   -0.086520    2.760176
     99          1           0        3.112514   -0.889636    2.066897
 ---------------------------------------------------------------------
 Rotational constants (GHZ):           0.0664570           0.0432910           0.0345974
 Standard basis: def2TZVP (5D, 7F)
 There are  2206 symmetry adapted cartesian basis functions of A   symmetry.
 There are  1939 symmetry adapted basis functions of A   symmetry.
  1939 basis functions,  3140 primitive gaussians,  2206 cartesian basis functions
   204 alpha electrons      204 beta electrons
       nuclear repulsion energy      8850.4884414278 Hartrees.
 NAtoms=   99 NActive=   99 NUniq=   99 SFac= 1.00D+00 NAtFMM=   60 NAOKFM=T Big=T
 Integral buffers will be    131072 words long.
 Raffenetti 2 integral format.
 Two-electron integral symmetry is turned on.
 Nuclear repulsion after empirical dispersion term =     8850.3422195728 Hartrees.
 One-electron integrals computed using PRISM.
   1 Symmetry operations used in ECPInt.
 ECPInt:  NShTT=  299151 NPrTT=  925475 LenC2=  219803 LenP2D=  438650.
 LDataN:  DoStor=T MaxTD1= 6 Len=  172
 NBasis=  1939 RedAO= T EigKep=  3.52D-06  NBF=  1939
 NBsUse=  1939 1.00D-06 EigRej= -1.00D+00 NBFU=  1939
 Initial guess from the checkpoint file:  "1c6r_II_S.chk"
 B after Tr=     0.000000   -0.000000    0.000000
         Rot=    1.000000    0.000000   -0.000000   -0.000000 Ang=   0.00 deg.
 SCF Done:  E(RPBE1PBE) =  -3879.42256615     a.u. after    1 cycles
            Convg  =    0.2549D-05                     1 Fock formations.
              S**2 =  0.0000                  -V/T =  2.0032

 **********************************************************************

            Population analysis using the SCF density.

 **********************************************************************

 Orbital symmetries:
       Occupied  (A) (A) (A) (A) (A) (A) (A) (A) (A) (A) (A) (A)
                 (A) (A) (A) (A) (A) (A) (A) (A) (A) (A) (A) (A)
                 (A) (A) (A) (A) (A) (A) (A) (A) (A) (A) (A) (A)
                 (A) (A) (A) (A) (A) (A) (A) (A) (A) (A) (A) (A)
                 (A) (A) (A) (A) (A) (A) (A) (A) (A) (A) (A) (A)
                 (A) (A) (A) (A) (A) (A) (A) (A) (A) (A) (A) (A)
                 (A) (A) (A) (A) (A) (A) (A) (A) (A) (A) (A) (A)
                 (A) (A) (A) (A) (A) (A) (A) (A) (A) (A) (A) (A)
                 (A) (A) (A) (A) (A) (A) (A) (A) (A) (A) (A) (A)
                 (A) (A) (A) (A) (A) (A) (A) (A) (A) (A) (A) (A)
                 (A) (A) (A) (A) (A) (A) (A) (A) (A) (A) (A) (A)
                 (A) (A) (A) (A) (A) (A) (A) (A) (A) (A) (A) (A)
                 (A) (A) (A) (A) (A) (A) (A) (A) (A) (A) (A) (A)
                 (A) (A) (A) (A) (A) (A) (A) (A) (A) (A) (A) (A)
                 (A) (A) (A) (A) (A) (A) (A) (A) (A) (A) (A) (A)
                 (A) (A) (A) (A) (A) (A) (A) (A) (A) (A) (A) (A)
                 (A) (A) (A) (A) (A) (A) (A) (A) (A) (A) (A) (A)
       Virtual   (A) (A) (A) (A) (A) (A) (A) (A) (A) (A) (A) (A)
                 (A) (A) (A) (A) (A) (A) (A) (A) (A) (A) (A) (A)
                 (A) (A) (A) (A) (A) (A) (A) (A) (A) (A) (A) (A)
                 (A) (A) (A) (A) (A) (A) (A) (A) (A) (A) (A) (A)
                 (A) (A) (A) (A) (A) (A) (A) (A) (A) (A) (A) (A)
                 (A) (A) (A) (A) (A) (A) (A) (A) (A) (A) (A) (A)
                 (A) (A) (A) (A) (A) (A) (A) (A) (A) (A) (A) (A)
                 (A) (A) (A) (A) (A) (A) (A) (A) (A) (A) (A) (A)
                 (A) (A) (A) (A) (A) (A) (A) (A) (A) (A) (A) (A)
                 (A) (A) (A) (A) (A) (A) (A) (A) (A) (A) (A) (A)
                 (A) (A) (A) (A) (A) (A) (A) (A) (A) (A) (A) (A)
                 (A) (A) (A) (A) (A) (A) (A) (A) (A) (A) (A) (A)
                 (A) (A) (A) (A) (A) (A) (A) (A) (A) (A) (A) (A)
                 (A) (A) (A) (A) (A) (A) (A) (A) (A) (A) (A) (A)
                 (A) (A) (A) (A) (A) (A) (A) (A) (A) (A) (A) (A)
                 (A) (A) (A) (A) (A) (A) (A) (A) (A) (A) (A) (A)
                 (A) (A) (A) (A) (A) (A) (A) (A) (A) (A) (A) (A)
                 (A) (A) (A) (A) (A) (A) (A) (A) (A) (A) (A) (A)
                 (A) (A) (A) (A) (A) (A) (A) (A) (A) (A) (A) (A)
                 (A) (A) (A) (A) (A) (A) (A) (A) (A) (A) (A) (A)
                 (A) (A) (A) (A) (A) (A) (A) (A) (A) (A) (A) (A)
                 (A) (A) (A) (A) (A) (A) (A) (A) (A) (A) (A) (A)
                 (A) (A) (A) (A) (A) (A) (A) (A) (A) (A) (A) (A)
                 (A) (A) (A) (A) (A) (A) (A) (A) (A) (A) (A) (A)
                 (A) (A) (A) (A) (A) (A) (A) (A) (A) (A) (A) (A)
                 (A) (A) (A) (A) (A) (A) (A) (A) (A) (A) (A) (A)
                 (A) (A) (A) (A) (A) (A) (A) (A) (A) (A) (A) (A)
                 (A) (A) (A) (A) (A) (A) (A) (A) (A) (A) (A) (A)
                 (A) (A) (A) (A) (A) (A) (A) (A) (A) (A) (A) (A)
                 (A) (A) (A) (A) (A) (A) (A) (A) (A) (A) (A) (A)
                 (A) (A) (A) (A) (A) (A) (A) (A) (A) (A) (A) (A)
                 (A) (A) (A) (A) (A) (A) (A) (A) (A) (A) (A) (A)
                 (A) (A) (A) (A) (A) (A) (A) (A) (A) (A) (A) (A)
                 (A) (A) (A) (A) (A) (A) (A) (A) (A) (A) (A) (A)
                 (A) (A) (A) (A) (A) (A) (A) (A) (A) (A) (A) (A)
                 (A) (A) (A) (A) (A) (A) (A) (A) (A) (A) (A) (A)
                 (A) (A) (A) (A) (A) (A) (A) (A) (A) (A) (A) (A)
                 (A) (A) (A) (A) (A) (A) (A) (A) (A) (A) (A) (A)
                 (A) (A) (A) (A) (A) (A) (A) (A) (A) (A) (A) (A)
                 (A) (A) (A) (A) (A) (A) (A) (A) (A) (A) (A) (A)
                 (A) (A) (A) (A) (A) (A) (A) (A) (A) (A) (A) (A)
                 (A) (A) (A) (A) (A) (A) (A) (A) (A) (A) (A) (A)
                 (A) (A) (A) (A) (A) (A) (A) (A) (A) (A) (A) (A)
                 (A) (A) (A) (A) (A) (A) (A) (A) (A) (A) (A) (A)
                 (A) (A) (A) (A) (A) (A) (A) (A) (A) (A) (A) (A)
                 (A) (A) (A) (A) (A) (A) (A) (A) (A) (A) (A) (A)
                 (A) (A) (A) (A) (A) (A) (A) (A) (A) (A) (A) (A)
                 (A) (A) (A) (A) (A) (A) (A) (A) (A) (A) (A) (A)
                 (A) (A) (A) (A) (A) (A) (A) (A) (A) (A) (A) (A)
                 (A) (A) (A) (A) (A) (A) (A) (A) (A) (A) (A) (A)
                 (A) (A) (A) (A) (A) (A) (A) (A) (A) (A) (A) (A)
                 (A) (A) (A) (A) (A) (A) (A) (A) (A) (A) (A) (A)
                 (A) (A) (A) (A) (A) (A) (A) (A) (A) (A) (A) (A)
                 (A) (A) (A) (A) (A) (A) (A) (A) (A) (A) (A) (A)
                 (A) (A) (A) (A) (A) (A) (A) (A) (A) (A) (A) (A)
                 (A) (A) (A) (A) (A) (A) (A) (A) (A) (A) (A) (A)
                 (A) (A) (A) (A) (A) (A) (A) (A) (A) (A) (A) (A)
                 (A) (A) (A) (A) (A) (A) (A) (A) (A) (A) (A) (A)
                 (A) (A) (A) (A) (A) (A) (A) (A) (A) (A) (A) (A)
                 (A) (A) (A) (A) (A) (A) (A) (A) (A) (A) (A) (A)
                 (A) (A) (A) (A) (A) (A) (A) (A) (A) (A) (A) (A)
                 (A) (A) (A) (A) (A) (A) (A) (A) (A) (A) (A) (A)
                 (A) (A) (A) (A) (A) (A) (A) (A) (A) (A) (A) (A)
                 (A) (A) (A) (A) (A) (A) (A) (A) (A) (A) (A) (A)
                 (A) (A) (A) (A) (A) (A) (A) (A) (A) (A) (A) (A)
                 (A) (A) (A) (A) (A) (A) (A) (A) (A) (A) (A) (A)
                 (A) (A) (A) (A) (A) (A) (A) (A) (A) (A) (A) (A)
                 (A) (A) (A) (A) (A) (A) (A) (A) (A) (A) (A) (A)
                 (A) (A) (A) (A) (A) (A) (A) (A) (A) (A) (A) (A)
                 (A) (A) (A) (A) (A) (A) (A) (A) (A) (A) (A) (A)
                 (A) (A) (A) (A) (A) (A) (A) (A) (A) (A) (A) (A)
                 (A) (A) (A) (A) (A) (A) (A) (A) (A) (A) (A) (A)
                 (A) (A) (A) (A) (A) (A) (A) (A) (A) (A) (A) (A)
                 (A) (A) (A) (A) (A) (A) (A) (A) (A) (A) (A) (A)
                 (A) (A) (A) (A) (A) (A) (A) (A) (A) (A) (A) (A)
                 (A) (A) (A) (A) (A) (A) (A) (A) (A) (A) (A) (A)
                 (A) (A) (A) (A) (A) (A) (A) (A) (A) (A) (A) (A)
                 (A) (A) (A) (A) (A) (A) (A) (A) (A) (A) (A) (A)
                 (A) (A) (A) (A) (A) (A) (A) (A) (A) (A) (A) (A)
                 (A) (A) (A) (A) (A) (A) (A) (A) (A) (A) (A) (A)
                 (A) (A) (A) (A) (A) (A) (A) (A) (A) (A) (A) (A)
                 (A) (A) (A) (A) (A) (A) (A) (A) (A) (A) (A) (A)
                 (A) (A) (A) (A) (A) (A) (A) (A) (A) (A) (A) (A)
                 (A) (A) (A) (A) (A) (A) (A) (A) (A) (A) (A) (A)
                 (A) (A) (A) (A) (A) (A) (A) (A) (A) (A) (A) (A)
                 (A) (A) (A) (A) (A) (A) (A) (A) (A) (A) (A) (A)
                 (A) (A) (A) (A) (A) (A) (A) (A) (A) (A) (A) (A)
                 (A) (A) (A) (A) (A) (A) (A) (A) (A) (A) (A) (A)
                 (A) (A) (A) (A) (A) (A) (A) (A) (A) (A) (A) (A)
                 (A) (A) (A) (A) (A) (A) (A) (A) (A) (A) (A) (A)
                 (A) (A) (A) (A) (A) (A) (A) (A) (A) (A) (A) (A)
                 (A) (A) (A) (A) (A) (A) (A) (A) (A) (A) (A) (A)
                 (A) (A) (A) (A) (A) (A) (A) (A) (A) (A) (A) (A)
                 (A) (A) (A) (A) (A) (A) (A) (A) (A) (A) (A) (A)
                 (A) (A) (A) (A) (A) (A) (A) (A) (A) (A) (A) (A)
                 (A) (A) (A) (A) (A) (A) (A) (A) (A) (A) (A) (A)
                 (A) (A) (A) (A) (A) (A) (A) (A) (A) (A) (A) (A)
                 (A) (A) (A) (A) (A) (A) (A) (A) (A) (A) (A) (A)
                 (A) (A) (A) (A) (A) (A) (A) (A) (A) (A) (A) (A)
                 (A) (A) (A) (A) (A) (A) (A) (A) (A) (A) (A) (A)
                 (A) (A) (A) (A) (A) (A) (A) (A) (A) (A) (A) (A)
                 (A) (A) (A) (A) (A) (A) (A) (A) (A) (A) (A) (A)
                 (A) (A) (A) (A) (A) (A) (A) (A) (A) (A) (A) (A)
                 (A) (A) (A) (A) (A) (A) (A) (A) (A) (A) (A) (A)
                 (A) (A) (A) (A) (A) (A) (A) (A) (A) (A) (A) (A)
                 (A) (A) (A) (A) (A) (A) (A) (A) (A) (A) (A) (A)
                 (A) (A) (A) (A) (A) (A) (A) (A) (A) (A) (A) (A)
                 (A) (A) (A) (A) (A) (A) (A) (A) (A) (A) (A) (A)
                 (A) (A) (A) (A) (A) (A) (A) (A) (A) (A) (A) (A)
                 (A) (A) (A) (A) (A) (A) (A) (A) (A) (A) (A) (A)
                 (A) (A) (A) (A) (A) (A) (A) (A) (A) (A) (A) (A)
                 (A) (A) (A) (A) (A) (A) (A) (A) (A) (A) (A) (A)
                 (A) (A) (A) (A) (A) (A) (A) (A) (A) (A) (A) (A)
                 (A) (A) (A) (A) (A) (A) (A) (A) (A) (A) (A) (A)
                 (A) (A) (A) (A) (A) (A) (A) (A) (A) (A) (A) (A)
                 (A) (A) (A) (A) (A) (A) (A) (A) (A) (A) (A) (A)
                 (A) (A) (A) (A) (A) (A) (A) (A) (A) (A) (A) (A)
                 (A) (A) (A) (A) (A) (A) (A) (A) (A) (A) (A) (A)
                 (A) (A) (A) (A) (A) (A) (A) (A) (A) (A) (A) (A)
                 (A) (A) (A) (A) (A) (A) (A) (A) (A) (A) (A) (A)
                 (A) (A) (A) (A) (A) (A) (A) (A) (A) (A) (A) (A)
                 (A) (A) (A) (A) (A) (A) (A) (A) (A) (A) (A) (A)
                 (A) (A) (A) (A) (A) (A) (A) (A) (A) (A) (A) (A)
                 (A) (A) (A) (A) (A) (A) (A) (A) (A) (A) (A) (A)
                 (A) (A) (A) (A) (A) (A) (A) (A) (A) (A) (A) (A)
                 (A) (A) (A) (A) (A) (A) (A) (A) (A) (A) (A) (A)
                 (A) (A) (A) (A) (A) (A) (A) (A) (A) (A) (A) (A)
                 (A) (A) (A) (A) (A) (A) (A) (A) (A) (A) (A) (A)
                 (A) (A) (A) (A) (A) (A) (A) (A) (A) (A) (A) (A)
                 (A) (A) (A) (A) (A) (A) (A) (A) (A) (A) (A) (A)
                 (A) (A) (A) (A) (A) (A) (A) (A) (A) (A) (A) (A)
                 (A) (A) (A) (A) (A) (A) (A) (A) (A) (A) (A) (A)
                 (A) (A) (A) (A) (A) (A) (A) (A) (A) (A) (A) (A)
                 (A) (A) (A) (A) (A) (A) (A) (A) (A) (A) (A) (A)
                 (A) (A) (A) (A) (A) (A) (A) (A) (A) (A) (A) (A)
                 (A) (A) (A) (A) (A) (A) (A) (A) (A) (A) (A) (A)
                 (A) (A) (A) (A) (A) (A) (A) (A) (A) (A) (A) (A)
                 (A) (A) (A) (A) (A) (A) (A) (A) (A) (A) (A) (A)
                 (A) (A) (A) (A) (A) (A) (A) (A) (A) (A) (A) (A)
                 (A) (A) (A) (A) (A) (A) (A) (A) (A) (A) (A) (A)
                 (A) (A) (A) (A) (A) (A) (A) (A) (A) (A) (A) (A)
                 (A) (A) (A) (A) (A) (A) (A) (A) (A) (A) (A) (A)
                 (A) (A) (A) (A) (A) (A) (A) (A) (A) (A) (A) (A)
                 (A) (A) (A) (A) (A) (A) (A) (A) (A) (A) (A) (A)
                 (A) (A) (A) (A) (A) (A) (A)
 The electronic state is 1-A.
 Alpha  occ. eigenvalues -- -256.31113 -89.01237 -30.07941 -25.90796 -25.90390
 Alpha  occ. eigenvalues --  -25.90343 -19.26783 -19.26428 -19.17379 -19.16981
 Alpha  occ. eigenvalues --  -14.44790 -14.38863 -14.36997 -14.36598 -14.36590
 Alpha  occ. eigenvalues --  -14.36538 -10.35129 -10.34913 -10.28109 -10.26090
 Alpha  occ. eigenvalues --  -10.24350 -10.24306 -10.24138 -10.23914 -10.23853
 Alpha  occ. eigenvalues --  -10.23623 -10.23617 -10.23483 -10.23470 -10.23401
 Alpha  occ. eigenvalues --  -10.23183 -10.23142 -10.23109 -10.23061 -10.23056
 Alpha  occ. eigenvalues --  -10.22759 -10.22683 -10.22474 -10.22425 -10.22363
 Alpha  occ. eigenvalues --  -10.22294 -10.22187 -10.22122 -10.21874 -10.21632
 Alpha  occ. eigenvalues --  -10.21310 -10.21253 -10.21236 -10.21167 -10.21163
 Alpha  occ. eigenvalues --  -10.21094 -10.21052 -10.20728 -10.20664 -10.20517
 Alpha  occ. eigenvalues --  -10.20288 -10.19807  -7.99039  -5.92719  -5.92412
 Alpha  occ. eigenvalues --   -5.91841  -3.42525  -2.18553  -2.17810  -2.17721
 Alpha  occ. eigenvalues --   -1.17419  -1.17047  -1.06659  -1.02068  -1.01494
 Alpha  occ. eigenvalues --   -0.97747  -0.96151  -0.95730  -0.94672  -0.90807
 Alpha  occ. eigenvalues --   -0.84228  -0.83285  -0.83151  -0.82940  -0.82707
 Alpha  occ. eigenvalues --   -0.82115  -0.81542  -0.80519  -0.79949  -0.79140
 Alpha  occ. eigenvalues --   -0.78385  -0.76742  -0.76007  -0.75864  -0.74482
 Alpha  occ. eigenvalues --   -0.73651  -0.72827  -0.72688  -0.71635  -0.70834
 Alpha  occ. eigenvalues --   -0.70003  -0.69497  -0.68655  -0.66714  -0.65858
 Alpha  occ. eigenvalues --   -0.65454  -0.64761  -0.64563  -0.64288  -0.62391
 Alpha  occ. eigenvalues --   -0.62135  -0.61638  -0.59790  -0.58444  -0.56806
 Alpha  occ. eigenvalues --   -0.56673  -0.55487  -0.54529  -0.54120  -0.53265
 Alpha  occ. eigenvalues --   -0.52286  -0.52015  -0.51751  -0.51032  -0.50818
 Alpha  occ. eigenvalues --   -0.50524  -0.50259  -0.49464  -0.49219  -0.48638
 Alpha  occ. eigenvalues --   -0.48459  -0.48198  -0.47978  -0.47688  -0.47554
 Alpha  occ. eigenvalues --   -0.46258  -0.46021  -0.45606  -0.45504  -0.45237
 Alpha  occ. eigenvalues --   -0.44998  -0.44614  -0.44357  -0.44200  -0.43954
 Alpha  occ. eigenvalues --   -0.43607  -0.43595  -0.43493  -0.43275  -0.43182
 Alpha  occ. eigenvalues --   -0.42875  -0.42813  -0.42719  -0.42584  -0.42437
 Alpha  occ. eigenvalues --   -0.41788  -0.41756  -0.41549  -0.41188  -0.40461
 Alpha  occ. eigenvalues --   -0.39872  -0.39747  -0.39517  -0.39135  -0.39017
 Alpha  occ. eigenvalues --   -0.38780  -0.38725  -0.38480  -0.38295  -0.38045
 Alpha  occ. eigenvalues --   -0.37865  -0.37639  -0.37478  -0.37155  -0.36958
 Alpha  occ. eigenvalues --   -0.36580  -0.36239  -0.36016  -0.35834  -0.35695
 Alpha  occ. eigenvalues --   -0.35404  -0.35021  -0.34534  -0.32908  -0.32533
 Alpha  occ. eigenvalues --   -0.32416  -0.32184  -0.31851  -0.31821  -0.31428
 Alpha  occ. eigenvalues --   -0.30694  -0.29826  -0.27704  -0.27528  -0.27386
 Alpha  occ. eigenvalues --   -0.27110  -0.26432  -0.25967  -0.25238  -0.24910
 Alpha  occ. eigenvalues --   -0.24195  -0.23352  -0.22674  -0.22276  -0.20141
 Alpha  occ. eigenvalues --   -0.18630  -0.18433  -0.18156  -0.18130
 Alpha virt. eigenvalues --   -0.06409  -0.06186  -0.02537  -0.02198  -0.00670
 Alpha virt. eigenvalues --    0.00186   0.00905   0.01295   0.02057   0.02323
 Alpha virt. eigenvalues --    0.02786   0.03375   0.04046   0.04301   0.04971
 Alpha virt. eigenvalues --    0.05156   0.05384   0.05473   0.05801   0.06053
 Alpha virt. eigenvalues --    0.06171   0.06254   0.06701   0.07065   0.07242
 Alpha virt. eigenvalues --    0.07460   0.08002   0.08379   0.08485   0.08801
 Alpha virt. eigenvalues --    0.08973   0.09284   0.09628   0.10116   0.10329
 Alpha virt. eigenvalues --    0.10630   0.10760   0.10909   0.11104   0.11446
 Alpha virt. eigenvalues --    0.11629   0.11927   0.12128   0.12279   0.12585
 Alpha virt. eigenvalues --    0.12771   0.12872   0.12920   0.13075   0.13349
 Alpha virt. eigenvalues --    0.13645   0.13726   0.13940   0.14106   0.14322
 Alpha virt. eigenvalues --    0.14538   0.14571   0.14716   0.15060   0.15188
 Alpha virt. eigenvalues --    0.15416   0.15621   0.15763   0.15891   0.16191
 Alpha virt. eigenvalues --    0.16222   0.16499   0.16573   0.16903   0.16953
 Alpha virt. eigenvalues --    0.17409   0.17635   0.17711   0.18080   0.18293
 Alpha virt. eigenvalues --    0.18414   0.18874   0.19057   0.19434   0.19553
 Alpha virt. eigenvalues --    0.19652   0.19818   0.20231   0.20374   0.20480
 Alpha virt. eigenvalues --    0.20699   0.20792   0.20874   0.21234   0.21502
 Alpha virt. eigenvalues --    0.21607   0.21783   0.21979   0.22235   0.22485
 Alpha virt. eigenvalues --    0.22934   0.23035   0.23171   0.23339   0.23563
 Alpha virt. eigenvalues --    0.23651   0.23891   0.23935   0.24152   0.24444
 Alpha virt. eigenvalues --    0.24854   0.25145   0.25323   0.25671   0.25703
 Alpha virt. eigenvalues --    0.25952   0.26132   0.26329   0.26390   0.26444
 Alpha virt. eigenvalues --    0.26931   0.27050   0.27289   0.27707   0.27963
 Alpha virt. eigenvalues --    0.28259   0.28585   0.28781   0.29178   0.29191
 Alpha virt. eigenvalues --    0.29600   0.29759   0.29845   0.30166   0.30501
 Alpha virt. eigenvalues --    0.30619   0.30689   0.30760   0.30922   0.31276
 Alpha virt. eigenvalues --    0.31617   0.31864   0.31988   0.32217   0.32346
 Alpha virt. eigenvalues --    0.32773   0.33071   0.33326   0.33377   0.33529
 Alpha virt. eigenvalues --    0.33834   0.34253   0.34322   0.34385   0.34672
 Alpha virt. eigenvalues --    0.34969   0.35256   0.35579   0.35653   0.35765
 Alpha virt. eigenvalues --    0.36164   0.36508   0.36662   0.36800   0.37000
 Alpha virt. eigenvalues --    0.37381   0.37587   0.37821   0.38205   0.38229
 Alpha virt. eigenvalues --    0.38293   0.38549   0.38782   0.38855   0.39136
 Alpha virt. eigenvalues --    0.39339   0.39609   0.39735   0.40026   0.40173
 Alpha virt. eigenvalues --    0.40477   0.40518   0.40952   0.41155   0.41334
 Alpha virt. eigenvalues --    0.41503   0.41522   0.41675   0.42045   0.42135
 Alpha virt. eigenvalues --    0.42265   0.42312   0.42637   0.42732   0.43003
 Alpha virt. eigenvalues --    0.43095   0.43448   0.43535   0.43670   0.43840
 Alpha virt. eigenvalues --    0.43927   0.44031   0.44337   0.44425   0.44590
 Alpha virt. eigenvalues --    0.44803   0.44875   0.45025   0.45118   0.45373
 Alpha virt. eigenvalues --    0.45453   0.45606   0.45909   0.46033   0.46097
 Alpha virt. eigenvalues --    0.46336   0.46457   0.46681   0.46818   0.47042
 Alpha virt. eigenvalues --    0.47077   0.47243   0.47547   0.47739   0.47968
 Alpha virt. eigenvalues --    0.48050   0.48264   0.48336   0.48433   0.48581
 Alpha virt. eigenvalues --    0.48830   0.49139   0.49171   0.49456   0.49496
 Alpha virt. eigenvalues --    0.49705   0.49968   0.50298   0.50359   0.50559
 Alpha virt. eigenvalues --    0.50701   0.50944   0.50990   0.51132   0.51235
 Alpha virt. eigenvalues --    0.51334   0.51519   0.51706   0.51873   0.51956
 Alpha virt. eigenvalues --    0.52168   0.52445   0.52641   0.52872   0.52957
 Alpha virt. eigenvalues --    0.53111   0.53232   0.53352   0.53505   0.53695
 Alpha virt. eigenvalues --    0.54023   0.54107   0.54465   0.54570   0.54838
 Alpha virt. eigenvalues --    0.55162   0.55231   0.55400   0.55604   0.55830
 Alpha virt. eigenvalues --    0.56135   0.56413   0.56509   0.56661   0.56946
 Alpha virt. eigenvalues --    0.57212   0.57290   0.57440   0.57750   0.57918
 Alpha virt. eigenvalues --    0.58047   0.58260   0.58485   0.58825   0.58901
 Alpha virt. eigenvalues --    0.59119   0.59453   0.59713   0.60054   0.60174
 Alpha virt. eigenvalues --    0.60265   0.60391   0.60858   0.61000   0.61241
 Alpha virt. eigenvalues --    0.61591   0.62019   0.62144   0.62500   0.62527
 Alpha virt. eigenvalues --    0.62955   0.63157   0.63291   0.63746   0.63949
 Alpha virt. eigenvalues --    0.64077   0.64172   0.64520   0.65001   0.65197
 Alpha virt. eigenvalues --    0.65350   0.65574   0.65898   0.66314   0.66508
 Alpha virt. eigenvalues --    0.66625   0.66768   0.67096   0.67701   0.67811
 Alpha virt. eigenvalues --    0.67930   0.68333   0.68402   0.68607   0.68853
 Alpha virt. eigenvalues --    0.69324   0.69590   0.69973   0.70242   0.70647
 Alpha virt. eigenvalues --    0.70872   0.71291   0.71667   0.71779   0.72201
 Alpha virt. eigenvalues --    0.72456   0.72642   0.72998   0.73129   0.73406
 Alpha virt. eigenvalues --    0.73432   0.73653   0.73846   0.74053   0.74322
 Alpha virt. eigenvalues --    0.74560   0.74957   0.75214   0.75915   0.76140
 Alpha virt. eigenvalues --    0.76557   0.76716   0.76860   0.77332   0.77878
 Alpha virt. eigenvalues --    0.78152   0.78412   0.78513   0.78948   0.79244
 Alpha virt. eigenvalues --    0.79355   0.79459   0.79719   0.79869   0.80290
 Alpha virt. eigenvalues --    0.80720   0.81036   0.81328   0.81695   0.81973
 Alpha virt. eigenvalues --    0.82039   0.82643   0.83032   0.83286   0.83615
 Alpha virt. eigenvalues --    0.84025   0.84209   0.84389   0.84635   0.84859
 Alpha virt. eigenvalues --    0.85430   0.85492   0.85610   0.86271   0.86505
 Alpha virt. eigenvalues --    0.87033   0.87278   0.87572   0.87719   0.87981
 Alpha virt. eigenvalues --    0.88371   0.88669   0.88699   0.89316   0.89605
 Alpha virt. eigenvalues --    0.89779   0.90082   0.90343   0.90525   0.90829
 Alpha virt. eigenvalues --    0.91309   0.91473   0.91634   0.91802   0.92096
 Alpha virt. eigenvalues --    0.92294   0.92621   0.92684   0.92919   0.93231
 Alpha virt. eigenvalues --    0.93242   0.94007   0.94320   0.94465   0.94589
 Alpha virt. eigenvalues --    0.94758   0.94852   0.95274   0.95737   0.95854
 Alpha virt. eigenvalues --    0.96103   0.96261   0.96594   0.96742   0.96978
 Alpha virt. eigenvalues --    0.97556   0.97870   0.98125   0.98205   0.98497
 Alpha virt. eigenvalues --    0.98598   0.99375   0.99596   0.99976   1.00198
 Alpha virt. eigenvalues --    1.00405   1.00601   1.00908   1.01356   1.01508
 Alpha virt. eigenvalues --    1.01866   1.01919   1.02099   1.02286   1.02565
 Alpha virt. eigenvalues --    1.02923   1.03330   1.03894   1.04016   1.04308
 Alpha virt. eigenvalues --    1.04612   1.04693   1.04987   1.05130   1.05396
 Alpha virt. eigenvalues --    1.05624   1.05977   1.06271   1.06581   1.06818
 Alpha virt. eigenvalues --    1.07079   1.07116   1.07779   1.08036   1.08119
 Alpha virt. eigenvalues --    1.08508   1.08953   1.09148   1.09395   1.09692
 Alpha virt. eigenvalues --    1.09965   1.10270   1.10381   1.10574   1.10890
 Alpha virt. eigenvalues --    1.11260   1.12164   1.12211   1.12368   1.13108
 Alpha virt. eigenvalues --    1.13208   1.13637   1.13825   1.14535   1.14730
 Alpha virt. eigenvalues --    1.14950   1.15288   1.16068   1.16147   1.16748
 Alpha virt. eigenvalues --    1.16992   1.17002   1.17389   1.17627   1.17993
 Alpha virt. eigenvalues --    1.18384   1.18795   1.19225   1.19372   1.19734
 Alpha virt. eigenvalues --    1.19992   1.20679   1.20880   1.21679   1.21824
 Alpha virt. eigenvalues --    1.21878   1.22194   1.22759   1.23041   1.23419
 Alpha virt. eigenvalues --    1.23769   1.24144   1.24326   1.24779   1.24889
 Alpha virt. eigenvalues --    1.25062   1.25206   1.25885   1.26326   1.26430
 Alpha virt. eigenvalues --    1.26798   1.26982   1.27523   1.27638   1.27898
 Alpha virt. eigenvalues --    1.28217   1.28591   1.29223   1.29357   1.29514
 Alpha virt. eigenvalues --    1.30042   1.30278   1.30587   1.31022   1.31351
 Alpha virt. eigenvalues --    1.31515   1.32109   1.32456   1.32520   1.32816
 Alpha virt. eigenvalues --    1.33381   1.33685   1.34018   1.34395   1.34667
 Alpha virt. eigenvalues --    1.35189   1.35375   1.35792   1.36136   1.36381
 Alpha virt. eigenvalues --    1.36480   1.37248   1.37481   1.38040   1.38200
 Alpha virt. eigenvalues --    1.38714   1.38913   1.39440   1.40087   1.40414
 Alpha virt. eigenvalues --    1.41348   1.41547   1.41680   1.42014   1.42611
 Alpha virt. eigenvalues --    1.43152   1.43666   1.43748   1.44484   1.44801
 Alpha virt. eigenvalues --    1.45199   1.45637   1.45932   1.46014   1.46709
 Alpha virt. eigenvalues --    1.47079   1.47397   1.47710   1.48101   1.48520
 Alpha virt. eigenvalues --    1.48726   1.48889   1.49217   1.49557   1.49940
 Alpha virt. eigenvalues --    1.50247   1.50670   1.50888   1.51077   1.51341
 Alpha virt. eigenvalues --    1.51443   1.52007   1.52096   1.52244   1.52612
 Alpha virt. eigenvalues --    1.52900   1.53288   1.53635   1.53915   1.54154
 Alpha virt. eigenvalues --    1.54323   1.54543   1.54865   1.55216   1.55415
 Alpha virt. eigenvalues --    1.55713   1.55907   1.56131   1.56682   1.56836
 Alpha virt. eigenvalues --    1.57026   1.57504   1.57646   1.58042   1.58140
 Alpha virt. eigenvalues --    1.58435   1.58556   1.58904   1.58982   1.59304
 Alpha virt. eigenvalues --    1.59683   1.59837   1.59986   1.60117   1.60192
 Alpha virt. eigenvalues --    1.60419   1.60832   1.60910   1.61088   1.61471
 Alpha virt. eigenvalues --    1.61780   1.62125   1.62207   1.62406   1.62682
 Alpha virt. eigenvalues --    1.63025   1.63272   1.63605   1.63830   1.64156
 Alpha virt. eigenvalues --    1.64330   1.64661   1.65009   1.65329   1.65542
 Alpha virt. eigenvalues --    1.65892   1.66113   1.66310   1.66501   1.66960
 Alpha virt. eigenvalues --    1.67075   1.67238   1.67453   1.67632   1.67951
 Alpha virt. eigenvalues --    1.68093   1.68258   1.68685   1.69031   1.69180
 Alpha virt. eigenvalues --    1.69460   1.70025   1.70107   1.70589   1.70720
 Alpha virt. eigenvalues --    1.71010   1.71191   1.71693   1.71811   1.71895
 Alpha virt. eigenvalues --    1.72313   1.72550   1.72754   1.72942   1.73277
 Alpha virt. eigenvalues --    1.73624   1.73831   1.74193   1.74603   1.74639
 Alpha virt. eigenvalues --    1.75218   1.75419   1.75530   1.75755   1.76157
 Alpha virt. eigenvalues --    1.76754   1.76947   1.77193   1.77195   1.78209
 Alpha virt. eigenvalues --    1.78420   1.78466   1.79032   1.79805   1.80223
 Alpha virt. eigenvalues --    1.80541   1.80550   1.81217   1.81764   1.82216
 Alpha virt. eigenvalues --    1.82585   1.82776   1.83242   1.83970   1.84092
 Alpha virt. eigenvalues --    1.84191   1.84290   1.84534   1.84956   1.85727
 Alpha virt. eigenvalues --    1.85796   1.86411   1.86507   1.86713   1.87136
 Alpha virt. eigenvalues --    1.87574   1.87827   1.88029   1.88242   1.88516
 Alpha virt. eigenvalues --    1.88706   1.89593   1.89774   1.89983   1.90198
 Alpha virt. eigenvalues --    1.90689   1.91253   1.91441   1.91970   1.92289
 Alpha virt. eigenvalues --    1.92574   1.93292   1.93536   1.93737   1.94495
 Alpha virt. eigenvalues --    1.94808   1.94908   1.95239   1.95452   1.95639
 Alpha virt. eigenvalues --    1.95738   1.96021   1.96274   1.96839   1.97301
 Alpha virt. eigenvalues --    1.97397   1.97668   1.98004   1.98720   1.98906
 Alpha virt. eigenvalues --    1.98982   1.99665   1.99913   2.00142   2.00299
 Alpha virt. eigenvalues --    2.00574   2.01211   2.01267   2.01771   2.01838
 Alpha virt. eigenvalues --    2.02470   2.02629   2.03036   2.03314   2.03518
 Alpha virt. eigenvalues --    2.03826   2.04021   2.04469   2.04873   2.04964
 Alpha virt. eigenvalues --    2.05613   2.05925   2.06392   2.06776   2.07221
 Alpha virt. eigenvalues --    2.07558   2.08036   2.08384   2.08875   2.09221
 Alpha virt. eigenvalues --    2.09743   2.10312   2.10458   2.10585   2.11114
 Alpha virt. eigenvalues --    2.11390   2.11598   2.11815   2.12134   2.12341
 Alpha virt. eigenvalues --    2.12555   2.13066   2.13409   2.13725   2.13832
 Alpha virt. eigenvalues --    2.14272   2.14513   2.14704   2.15299   2.15722
 Alpha virt. eigenvalues --    2.16037   2.16361   2.16707   2.16999   2.17329
 Alpha virt. eigenvalues --    2.17783   2.18064   2.18349   2.18516   2.18950
 Alpha virt. eigenvalues --    2.19353   2.19578   2.19714   2.20224   2.20758
 Alpha virt. eigenvalues --    2.20870   2.21500   2.21748   2.22106   2.22455
 Alpha virt. eigenvalues --    2.22948   2.23303   2.23769   2.24159   2.24396
 Alpha virt. eigenvalues --    2.24772   2.25104   2.25537   2.25855   2.26255
 Alpha virt. eigenvalues --    2.26394   2.27234   2.27612   2.27847   2.28282
 Alpha virt. eigenvalues --    2.28683   2.28837   2.29471   2.29661   2.29763
 Alpha virt. eigenvalues --    2.31095   2.31282   2.31479   2.31878   2.32431
 Alpha virt. eigenvalues --    2.32603   2.33292   2.33499   2.33589   2.34276
 Alpha virt. eigenvalues --    2.34811   2.34951   2.35373   2.35645   2.35933
 Alpha virt. eigenvalues --    2.36007   2.36404   2.36668   2.37375   2.37713
 Alpha virt. eigenvalues --    2.37964   2.38256   2.38585   2.38889   2.39173
 Alpha virt. eigenvalues --    2.39742   2.40110   2.40503   2.40576   2.40844
 Alpha virt. eigenvalues --    2.41340   2.41506   2.41759   2.41947   2.42740
 Alpha virt. eigenvalues --    2.43128   2.43361   2.43854   2.44271   2.44463
 Alpha virt. eigenvalues --    2.44785   2.44908   2.45214   2.45543   2.45941
 Alpha virt. eigenvalues --    2.46388   2.46909   2.47147   2.47186   2.47420
 Alpha virt. eigenvalues --    2.47847   2.48073   2.48520   2.49005   2.49332
 Alpha virt. eigenvalues --    2.49542   2.50345   2.50748   2.50954   2.51226
 Alpha virt. eigenvalues --    2.51545   2.52063   2.52289   2.52684   2.52805
 Alpha virt. eigenvalues --    2.53614   2.53683   2.54518   2.54835   2.55159
 Alpha virt. eigenvalues --    2.55534   2.56335   2.56407   2.56565   2.56790
 Alpha virt. eigenvalues --    2.56921   2.57612   2.57931   2.58336   2.58528
 Alpha virt. eigenvalues --    2.58963   2.59130   2.59262   2.60083   2.60161
 Alpha virt. eigenvalues --    2.60529   2.60730   2.61098   2.61284   2.61599
 Alpha virt. eigenvalues --    2.61813   2.61921   2.62443   2.63007   2.63255
 Alpha virt. eigenvalues --    2.63514   2.63870   2.64115   2.64155   2.64754
 Alpha virt. eigenvalues --    2.64897   2.65036   2.65250   2.65908   2.66038
 Alpha virt. eigenvalues --    2.66258   2.66411   2.66538   2.66919   2.67588
 Alpha virt. eigenvalues --    2.67916   2.68147   2.68224   2.68503   2.68686
 Alpha virt. eigenvalues --    2.68961   2.69254   2.69871   2.70146   2.70272
 Alpha virt. eigenvalues --    2.70386   2.70496   2.70750   2.71215   2.71635
 Alpha virt. eigenvalues --    2.72195   2.72367   2.72598   2.72900   2.72960
 Alpha virt. eigenvalues --    2.73537   2.73679   2.73887   2.74513   2.74762
 Alpha virt. eigenvalues --    2.75194   2.75454   2.75478   2.75783   2.75983
 Alpha virt. eigenvalues --    2.76451   2.76982   2.77216   2.77349   2.77677
 Alpha virt. eigenvalues --    2.77759   2.78160   2.78468   2.78950   2.79069
 Alpha virt. eigenvalues --    2.79440   2.79561   2.80131   2.80377   2.80753
 Alpha virt. eigenvalues --    2.80983   2.81160   2.81607   2.81894   2.82068
 Alpha virt. eigenvalues --    2.82682   2.82940   2.83133   2.83552   2.84183
 Alpha virt. eigenvalues --    2.84538   2.84710   2.85431   2.85515   2.85650
 Alpha virt. eigenvalues --    2.86286   2.86374   2.86741   2.87182   2.87661
 Alpha virt. eigenvalues --    2.87831   2.88065   2.88561   2.88746   2.88920
 Alpha virt. eigenvalues --    2.89401   2.89644   2.89876   2.90832   2.91037
 Alpha virt. eigenvalues --    2.91205   2.91284   2.91496   2.92032   2.92452
 Alpha virt. eigenvalues --    2.92608   2.92819   2.93027   2.93259   2.93824
 Alpha virt. eigenvalues --    2.94108   2.94825   2.95000   2.95442   2.95854
 Alpha virt. eigenvalues --    2.95897   2.96269   2.96441   2.96723   2.97176
 Alpha virt. eigenvalues --    2.97289   2.97621   2.97755   2.98073   2.98587
 Alpha virt. eigenvalues --    2.98987   2.99220   2.99710   2.99810   3.00242
 Alpha virt. eigenvalues --    3.00658   3.00985   3.01385   3.01739   3.01932
 Alpha virt. eigenvalues --    3.01991   3.02290   3.02603   3.03113   3.03423
 Alpha virt. eigenvalues --    3.04430   3.04649   3.04740   3.04812   3.05365
 Alpha virt. eigenvalues --    3.05598   3.05855   3.06043   3.06562   3.06950
 Alpha virt. eigenvalues --    3.07208   3.07497   3.07789   3.08118   3.08275
 Alpha virt. eigenvalues --    3.08749   3.08912   3.09059   3.09118   3.09773
 Alpha virt. eigenvalues --    3.09896   3.10036   3.10251   3.10533   3.10975
 Alpha virt. eigenvalues --    3.11108   3.11608   3.11826   3.11989   3.12187
 Alpha virt. eigenvalues --    3.12483   3.12766   3.13176   3.13304   3.13385
 Alpha virt. eigenvalues --    3.13964   3.14262   3.14327   3.14605   3.14835
 Alpha virt. eigenvalues --    3.15304   3.15451   3.15774   3.15963   3.16197
 Alpha virt. eigenvalues --    3.16519   3.16872   3.17072   3.17443   3.17562
 Alpha virt. eigenvalues --    3.17712   3.17981   3.18192   3.18514   3.19076
 Alpha virt. eigenvalues --    3.19362   3.19540   3.19873   3.20392   3.20463
 Alpha virt. eigenvalues --    3.20731   3.20879   3.21213   3.21772   3.22022
 Alpha virt. eigenvalues --    3.22181   3.22461   3.22607   3.22650   3.23033
 Alpha virt. eigenvalues --    3.23133   3.23443   3.23662   3.23984   3.24177
 Alpha virt. eigenvalues --    3.24525   3.24789   3.25056   3.25321   3.25393
 Alpha virt. eigenvalues --    3.25753   3.25901   3.26174   3.26303   3.26485
 Alpha virt. eigenvalues --    3.26893   3.26980   3.27418   3.27572   3.27787
 Alpha virt. eigenvalues --    3.28215   3.28289   3.28989   3.29004   3.29152
 Alpha virt. eigenvalues --    3.29443   3.29555   3.29800   3.30137   3.30338
 Alpha virt. eigenvalues --    3.30541   3.30810   3.31246   3.31343   3.31628
 Alpha virt. eigenvalues --    3.32014   3.32087   3.32211   3.32716   3.33020
 Alpha virt. eigenvalues --    3.33395   3.33475   3.33665   3.33949   3.34434
 Alpha virt. eigenvalues --    3.34716   3.34856   3.35051   3.35161   3.35572
 Alpha virt. eigenvalues --    3.35983   3.36080   3.36443   3.36843   3.37125
 Alpha virt. eigenvalues --    3.37579   3.37618   3.37717   3.38117   3.38245
 Alpha virt. eigenvalues --    3.38378   3.38603   3.38794   3.38821   3.39149
 Alpha virt. eigenvalues --    3.39337   3.39543   3.39713   3.39885   3.40474
 Alpha virt. eigenvalues --    3.40586   3.40658   3.41158   3.41312   3.41638
 Alpha virt. eigenvalues --    3.41971   3.42083   3.42559   3.42822   3.43306
 Alpha virt. eigenvalues --    3.43446   3.43483   3.43783   3.44267   3.44867
 Alpha virt. eigenvalues --    3.44988   3.45419   3.45720   3.45839   3.46101
 Alpha virt. eigenvalues --    3.46402   3.46770   3.46919   3.47120   3.47254
 Alpha virt. eigenvalues --    3.47354   3.47817   3.48324   3.48474   3.49246
 Alpha virt. eigenvalues --    3.49701   3.49815   3.49907   3.50298   3.50417
 Alpha virt. eigenvalues --    3.50665   3.51273   3.51612   3.51932   3.52365
 Alpha virt. eigenvalues --    3.52583   3.52818   3.53040   3.53399   3.53538
 Alpha virt. eigenvalues --    3.53857   3.53949   3.54549   3.54876   3.55001
 Alpha virt. eigenvalues --    3.55252   3.55578   3.55774   3.56266   3.56695
 Alpha virt. eigenvalues --    3.56925   3.57234   3.57419   3.57911   3.58047
 Alpha virt. eigenvalues --    3.58537   3.59124   3.59311   3.59816   3.60136
 Alpha virt. eigenvalues --    3.60275   3.60582   3.61084   3.61473   3.61882
 Alpha virt. eigenvalues --    3.62021   3.62439   3.63007   3.63085   3.63550
 Alpha virt. eigenvalues --    3.64123   3.64485   3.64714   3.65059   3.65237
 Alpha virt. eigenvalues --    3.65556   3.66069   3.66362   3.67051   3.67288
 Alpha virt. eigenvalues --    3.67564   3.68066   3.68215   3.68444   3.68847
 Alpha virt. eigenvalues --    3.69441   3.69909   3.70230   3.70389   3.70761
 Alpha virt. eigenvalues --    3.71021   3.71843   3.72071   3.72261   3.72762
 Alpha virt. eigenvalues --    3.73122   3.73323   3.73555   3.74043   3.74161
 Alpha virt. eigenvalues --    3.74636   3.74955   3.75572   3.75951   3.76240
 Alpha virt. eigenvalues --    3.76794   3.77021   3.77552   3.77883   3.78184
 Alpha virt. eigenvalues --    3.78461   3.78803   3.79152   3.79671   3.79883
 Alpha virt. eigenvalues --    3.80841   3.81159   3.81791   3.81947   3.83032
 Alpha virt. eigenvalues --    3.83257   3.83478   3.84211   3.84415   3.85170
 Alpha virt. eigenvalues --    3.85384   3.85820   3.86114   3.86879   3.86976
 Alpha virt. eigenvalues --    3.87466   3.87965   3.88349   3.88503   3.88896
 Alpha virt. eigenvalues --    3.89415   3.90377   3.90529   3.91581   3.91688
 Alpha virt. eigenvalues --    3.91908   3.92525   3.92982   3.93336   3.93965
 Alpha virt. eigenvalues --    3.94006   3.94969   3.95813   3.96055   3.96160
 Alpha virt. eigenvalues --    3.96408   3.97028   3.97292   3.98060   3.98363
 Alpha virt. eigenvalues --    3.98746   3.99093   3.99810   4.00368   4.01048
 Alpha virt. eigenvalues --    4.01435   4.01999   4.02425   4.02937   4.03624
 Alpha virt. eigenvalues --    4.04446   4.04586   4.05005   4.05809   4.06258
 Alpha virt. eigenvalues --    4.06570   4.07167   4.07420   4.08106   4.08248
 Alpha virt. eigenvalues --    4.09035   4.09498   4.10222   4.10716   4.11366
 Alpha virt. eigenvalues --    4.12204   4.12393   4.12781   4.13337   4.13941
 Alpha virt. eigenvalues --    4.14644   4.15131   4.15795   4.16123   4.17432
 Alpha virt. eigenvalues --    4.17771   4.18067   4.18398   4.19104   4.19473
 Alpha virt. eigenvalues --    4.19942   4.20070   4.20403   4.21096   4.21771
 Alpha virt. eigenvalues --    4.22318   4.22391   4.22915   4.23168   4.23413
 Alpha virt. eigenvalues --    4.23511   4.24702   4.25382   4.26052   4.26456
 Alpha virt. eigenvalues --    4.26988   4.28055   4.28412   4.28960   4.29313
 Alpha virt. eigenvalues --    4.29944   4.30188   4.30574   4.30836   4.31517
 Alpha virt. eigenvalues --    4.31976   4.32772   4.33074   4.33242   4.33905
 Alpha virt. eigenvalues --    4.34116   4.34484   4.35358   4.36423   4.36802
 Alpha virt. eigenvalues --    4.37106   4.37284   4.37951   4.38032   4.38761
 Alpha virt. eigenvalues --    4.39180   4.39754   4.40179   4.40787   4.41131
 Alpha virt. eigenvalues --    4.41364   4.41807   4.42336   4.42948   4.43247
 Alpha virt. eigenvalues --    4.43571   4.43727   4.44268   4.44517   4.45044
 Alpha virt. eigenvalues --    4.45279   4.46113   4.46369   4.46953   4.47375
 Alpha virt. eigenvalues --    4.47985   4.48854   4.49286   4.49574   4.50133
 Alpha virt. eigenvalues --    4.50801   4.51446   4.51787   4.52482   4.52968
 Alpha virt. eigenvalues --    4.53364   4.54432   4.55045   4.55491   4.56285
 Alpha virt. eigenvalues --    4.56818   4.57338   4.58000   4.58630   4.59110
 Alpha virt. eigenvalues --    4.59312   4.59872   4.60420   4.60768   4.61453
 Alpha virt. eigenvalues --    4.62015   4.62407   4.63697   4.64691   4.65029
 Alpha virt. eigenvalues --    4.65711   4.66985   4.67750   4.68690   4.68916
 Alpha virt. eigenvalues --    4.69298   4.69711   4.70699   4.70968   4.71162
 Alpha virt. eigenvalues --    4.72489   4.72984   4.73441   4.73526   4.74200
 Alpha virt. eigenvalues --    4.74855   4.75351   4.75544   4.76593   4.77998
 Alpha virt. eigenvalues --    4.78575   4.78833   4.79489   4.80706   4.81123
 Alpha virt. eigenvalues --    4.81344   4.82167   4.83166   4.83343   4.84206
 Alpha virt. eigenvalues --    4.84927   4.86543   4.87448   4.87795   4.88211
 Alpha virt. eigenvalues --    4.89544   4.89615   4.90370   4.91203   4.92004
 Alpha virt. eigenvalues --    4.92516   4.92829   4.93091   4.93888   4.94672
 Alpha virt. eigenvalues --    4.95011   4.95943   4.96210   4.96371   4.96890
 Alpha virt. eigenvalues --    4.97773   4.98387   4.99166   5.01219   5.01680
 Alpha virt. eigenvalues --    5.02539   5.03457   5.04076   5.04915   5.06312
 Alpha virt. eigenvalues --    5.06910   5.08033   5.08651   5.09778   5.10376
 Alpha virt. eigenvalues --    5.10900   5.12171   5.12767   5.13391   5.15281
 Alpha virt. eigenvalues --    5.16289   5.17434   5.17690   5.19222   5.20455
 Alpha virt. eigenvalues --    5.20870   5.21165   5.21506   5.22160   5.22843
 Alpha virt. eigenvalues --    5.23116   5.23758   5.24025   5.24450   5.25038
 Alpha virt. eigenvalues --    5.26278   5.27323   5.27441   5.28228   5.29688
 Alpha virt. eigenvalues --    5.30530   5.31542   5.32741   5.33642   5.35136
 Alpha virt. eigenvalues --    5.36661   5.37675   5.38089   5.38377   5.40594
 Alpha virt. eigenvalues --    5.41805   5.42425   5.43803   5.44730   5.45912
 Alpha virt. eigenvalues --    5.46128   5.47240   5.48239   5.49082   5.49787
 Alpha virt. eigenvalues --    5.49902   5.51821   5.53430   5.54128   5.55319
 Alpha virt. eigenvalues --    5.57600   5.58290   5.58498   5.59492   5.59617
 Alpha virt. eigenvalues --    5.60861   5.61978   5.62156   5.63564   5.64184
 Alpha virt. eigenvalues --    5.65784   5.66586   5.67133   5.67173   5.69340
 Alpha virt. eigenvalues --    5.73183   5.75783   5.78999   5.79583   5.80088
 Alpha virt. eigenvalues --    5.80478   5.81977   5.85355   5.89332   5.91161
 Alpha virt. eigenvalues --    5.91842   5.93392   5.95426   5.98045   5.98984
 Alpha virt. eigenvalues --    5.99519   6.01003   6.02265   6.03351   6.05770
 Alpha virt. eigenvalues --    6.08009   6.08125   6.12252   6.12492   6.13600
 Alpha virt. eigenvalues --    6.15928   6.17056   6.18378   6.20082   6.22055
 Alpha virt. eigenvalues --    6.27025   6.28068   6.30745   6.31085   6.31995
 Alpha virt. eigenvalues --    6.34496   6.34834   6.38039   6.42032   6.44240
 Alpha virt. eigenvalues --    6.46928   6.48813   6.50976   6.55460   6.64643
 Alpha virt. eigenvalues --    6.67915   6.74908   6.76994   6.84230   6.84369
 Alpha virt. eigenvalues --    6.90282   6.94314   7.00608   7.01605   7.11658
 Alpha virt. eigenvalues --    7.13107   7.14793   7.15968   7.30807   7.35255
 Alpha virt. eigenvalues --    9.21501   9.49453   9.64492  20.07711  22.34859
 Alpha virt. eigenvalues --   22.36733  22.45856  22.51890  22.52208  22.54073
 Alpha virt. eigenvalues --   22.57250  22.58528  22.58776  22.59233  22.62796
 Alpha virt. eigenvalues --   22.67501  22.68999  22.77350  22.79093  22.79698
 Alpha virt. eigenvalues --   22.81237  22.91862  22.94422  22.95455  22.96534
 Alpha virt. eigenvalues --   23.00908  23.05325  23.08458  23.12619  23.16790
 Alpha virt. eigenvalues --   23.18651  23.24175  23.28935  23.31245  23.38843
 Alpha virt. eigenvalues --   23.40229  23.48764  23.53815  23.54211  23.59022
 Alpha virt. eigenvalues --   23.60766  23.73378  23.78493  23.79217  23.91478
 Alpha virt. eigenvalues --   32.47474  32.82020  32.97908  33.03058  33.05272
 Alpha virt. eigenvalues --   33.15144  43.93658  43.94564  43.95027  43.96812
          Condensed to atoms (all electrons):
 Mulliken charges:
               1
     1  C   -0.386495
     2  C    0.162497
     3  N   -0.215689
     4  C   -0.194292
     5  C    0.026044
     6  N   -0.031966
     7  C   -0.313761
     8  C   -0.194846
     9  S    0.018138
    10  C   -0.365541
    11  C   -0.608021
    12  C   -0.485107
    13  C   -0.484144
    14  C   -0.527813
    15  C    0.259095
    16  C    0.009652
    17  C   -0.074572
    18  C    0.222309
    19  C   -0.400065
    20  C   -0.345153
    21  C   -0.185705
    22  C    0.267491
    23  O   -0.391877
    24  O   -0.315604
    25  C    0.313207
    26  C   -0.083584
    27  C    0.088160
    28  C    0.177060
    29  C   -0.371859
    30  C   -0.265280
    31  C   -0.261272
    32  C    0.283229
    33  C   -0.101664
    34  C    0.118739
    35  C    0.173630
    36  C   -0.397921
    37  C   -0.298263
    38  C   -0.265849
    39  C    0.340575
    40  C   -0.016426
    41  C    0.035369
    42  C    0.211581
    43  C   -0.437898
    44  C   -0.367205
    45  C   -0.139460
    46  C    0.268851
    47  O   -0.379727
    48  O   -0.332616
    49  N    0.029920
    50  N   -0.037713
    51  N    0.044353
    52  N    0.007259
    53  Fe  -0.386575
    54  H    0.345688
    55  H    0.136169
    56  H    0.135017
    57  H    0.142894
    58  H    0.117574
    59  H    0.123415
    60  H    0.141706
    61  H    0.131163
    62  H    0.091314
    63  H    0.121493
    64  H    0.127184
    65  H    0.131270
    66  H    0.131253
    67  H    0.133813
    68  H    0.130877
    69  H    0.128253
    70  H    0.130735
    71  H    0.137365
    72  H    0.142267
    73  H    0.132004
    74  H    0.142059
    75  H    0.132450
    76  H    0.115750
    77  H    0.142126
    78  H    0.134744
    79  H    0.133751
    80  H    0.136884
    81  H    0.129030
    82  H    0.125931
    83  H    0.130941
    84  H    0.125201
    85  H    0.351566
    86  H    0.112149
    87  H    0.118999
    88  H    0.117767
    89  H    0.115503
    90  H    0.123986
    91  H    0.136185
    92  H    0.143348
    93  H    0.163664
    94  H    0.134432
    95  H    0.144616
    96  H    0.139083
    97  H    0.231207
    98  H    0.164629
    99  H    0.149353
 Sum of Mulliken charges =  -0.00000
 Mulliken charges with hydrogens summed into heavy atoms:
               1
     1  C    0.031636
     2  C    0.162497
     3  N    0.015517
     4  C   -0.044940
     5  C    0.190674
     6  N   -0.031966
     7  C    0.035153
     8  C    0.044643
     9  S    0.018138
    10  C    0.077656
    11  C   -0.471137
    12  C   -0.393793
    13  C   -0.355891
    14  C   -0.412063
    15  C    0.259095
    16  C    0.009652
    17  C   -0.074572
    18  C    0.222309
    19  C   -0.003781
    20  C   -0.084685
    21  C    0.085481
    22  C    0.267491
    23  O   -0.391877
    24  O    0.030084
    25  C    0.313207
    26  C   -0.083584
    27  C    0.088160
    28  C    0.177060
    29  C    0.008087
    30  C   -0.134403
    31  C    0.003795
    32  C    0.283229
    33  C   -0.101664
    34  C    0.118739
    35  C    0.173630
    36  C    0.012447
    37  C   -0.165813
    38  C    0.008214
    39  C    0.340575
    40  C   -0.016426
    41  C    0.035369
    42  C    0.211581
    43  C   -0.027278
    44  C   -0.112244
    45  C    0.116682
    46  C    0.268851
    47  O   -0.379727
    48  O    0.018950
    49  N    0.029920
    50  N   -0.037713
    51  N    0.044353
    52  N    0.007259
    53  Fe  -0.386575
 Electronic spatial extent (au):  <R**2>=          33673.9427
 Charge=             -0.0000 electrons
 Dipole moment (field-independent basis, Debye):
    X=              1.1857    Y=              0.6723    Z=              2.0928  Tot=              2.4976
 Quadrupole moment (field-independent basis, Debye-Ang):
   XX=           -326.6851   YY=           -302.9985   ZZ=           -301.2094
   XY=            -22.7947   XZ=             13.1469   YZ=              8.6262
 Traceless Quadrupole moment (field-independent basis, Debye-Ang):
   XX=            -16.3874   YY=              7.2992   ZZ=              9.0883
   XY=            -22.7947   XZ=             13.1469   YZ=              8.6262
 Octapole moment (field-independent basis, Debye-Ang**2):
  XXX=             12.7618  YYY=             50.3688  ZZZ=             78.2998  XYY=           -126.2533
  XXY=            104.0004  XXZ=            -62.0684  XZZ=             81.9620  YZZ=             -3.7825
  YYZ=            -34.1379  XYZ=            -87.5740
 Hexadecapole moment (field-independent basis, Debye-Ang**3):
 XXXX=         -23488.7888 YYYY=         -13964.2009 ZZZZ=          -5748.4096 XXXY=           -663.2363
 XXXZ=            397.7855 YYYX=           -511.4113 YYYZ=            116.2980 ZZZX=            269.1260
 ZZZY=           -155.1849 XXYY=          -5740.2918 XXZZ=          -5648.2209 YYZZ=          -3604.9803
 XXYZ=            464.7687 YYXZ=            269.5483 ZZXY=           -338.8840
 N-N= 8.850342219573D+03 E-N=-2.682625813547D+04  KE= 3.866946550211D+03
 ******************************Gaussian NBO Version 3.1******************************
             N A T U R A L   A T O M I C   O R B I T A L   A N D
          N A T U R A L   B O N D   O R B I T A L   A N A L Y S I S
 ******************************Gaussian NBO Version 3.1******************************
       /RESON  / : Allow strongly delocalized NBO set

 Analyzing the SCF density

 Job title: 1c6r_II_S_nbo                                                   

 Storage needed:  11310604 in NPA,  15054547 in NBO (2147433257 available)
 GSVD:  LWork=     1629681 too small for GESVD, short by     2621129 words or     2621129 for optimal perf.


 NATURAL POPULATIONS:  Natural atomic orbital occupancies 
                                                          
   NAO  Atom  No  lang   Type(AO)    Occupancy      Energy
 ----------------------------------------------------------
     1    C    1  S      Cor( 1S)     1.99939     -10.07556
     2    C    1  S      Val( 2S)     1.09901      -0.30635
     3    C    1  S      Ryd( 3S)     0.00064       1.02799
     4    C    1  S      Ryd( 4S)     0.00015       1.88697
     5    C    1  S      Ryd( 5S)     0.00000      21.67936
     6    C    1  px     Val( 2p)     1.18760      -0.12061
     7    C    1  px     Ryd( 3p)     0.00086       0.94648
     8    C    1  px     Ryd( 4p)     0.00013       1.45615
     9    C    1  py     Val( 2p)     1.19419      -0.11964
    10    C    1  py     Ryd( 3p)     0.00018       0.91622
    11    C    1  py     Ryd( 4p)     0.00016       1.34862
    12    C    1  pz     Val( 2p)     1.15172      -0.11723
    13    C    1  pz     Ryd( 3p)     0.00039       0.90661
    14    C    1  pz     Ryd( 4p)     0.00017       1.34165
    15    C    1  dxy    Ryd( 4d)     0.00051       2.94616
    16    C    1  dxy    Ryd( 3d)     0.00014       2.42490
    17    C    1  dxz    Ryd( 4d)     0.00067       3.28390
    18    C    1  dxz    Ryd( 3d)     0.00003       2.50379
    19    C    1  dyz    Ryd( 4d)     0.00079       3.18964
    20    C    1  dyz    Ryd( 3d)     0.00003       2.35021
    21    C    1  dx2y2  Ryd( 4d)     0.00046       2.87445
    22    C    1  dx2y2  Ryd( 3d)     0.00015       2.39341
    23    C    1  dz2    Ryd( 4d)     0.00031       2.93721
    24    C    1  dz2    Ryd( 3d)     0.00003       2.54978
    25    C    1  f(0)   Ryd( 4f)     0.00002       3.40379
    26    C    1  f(C1)  Ryd( 4f)     0.00003       3.44335
    27    C    1  f(S1)  Ryd( 4f)     0.00007       3.51074
    28    C    1  f(C2)  Ryd( 4f)     0.00009       3.61859
    29    C    1  f(S2)  Ryd( 4f)     0.00010       3.51499
    30    C    1  f(C3)  Ryd( 4f)     0.00005       3.44654
    31    C    1  f(S3)  Ryd( 4f)     0.00002       3.40458

    32    C    2  S      Cor( 1S)     1.99909     -10.11354
    33    C    2  S      Val( 2S)     0.89351      -0.20191
    34    C    2  S      Ryd( 3S)     0.00117       1.58558
    35    C    2  S      Ryd( 4S)     0.00003       1.59747
    36    C    2  S      Ryd( 5S)     0.00001      21.59995
    37    C    2  px     Val( 2p)     0.86054      -0.04510
    38    C    2  px     Ryd( 3p)     0.00292       1.29588
    39    C    2  px     Ryd( 4p)     0.00014       1.73829
    40    C    2  py     Val( 2p)     1.06105      -0.11281
    41    C    2  py     Ryd( 3p)     0.00273       0.93178
    42    C    2  py     Ryd( 4p)     0.00049       1.39107
    43    C    2  pz     Val( 2p)     1.06924      -0.08005
    44    C    2  pz     Ryd( 3p)     0.00360       1.31303
    45    C    2  pz     Ryd( 4p)     0.00036       1.99885
    46    C    2  dxy    Ryd( 3d)     0.00052       1.28801
    47    C    2  dxy    Ryd( 4d)     0.00044       3.44755
    48    C    2  dxz    Ryd( 3d)     0.00105       1.75621
    49    C    2  dxz    Ryd( 4d)     0.00070       3.73232
    50    C    2  dyz    Ryd( 3d)     0.00089       1.35292
    51    C    2  dyz    Ryd( 4d)     0.00038       3.48307
    52    C    2  dx2y2  Ryd( 3d)     0.00040       1.41059
    53    C    2  dx2y2  Ryd( 4d)     0.00041       3.80980
    54    C    2  dz2    Ryd( 3d)     0.00146       1.55646
    55    C    2  dz2    Ryd( 4d)     0.00067       3.66050
    56    C    2  f(0)   Ryd( 4f)     0.00016       4.04277
    57    C    2  f(C1)  Ryd( 4f)     0.00014       3.98479
    58    C    2  f(S1)  Ryd( 4f)     0.00017       3.82761
    59    C    2  f(C2)  Ryd( 4f)     0.00012       3.76205
    60    C    2  f(S2)  Ryd( 4f)     0.00011       3.65632
    61    C    2  f(C3)  Ryd( 4f)     0.00007       3.60916
    62    C    2  f(S3)  Ryd( 4f)     0.00008       3.66159

    63    N    3  S      Cor( 1S)     1.99935     -14.24523
    64    N    3  S      Val( 2S)     1.23576      -0.58370
    65    N    3  S      Ryd( 3S)     0.00083       1.74876
    66    N    3  S      Ryd( 4S)     0.00007       2.75286
    67    N    3  S      Ryd( 5S)     0.00000      30.48530
    68    N    3  px     Val( 2p)     1.31524      -0.26455
    69    N    3  px     Ryd( 3p)     0.00187       1.05740
    70    N    3  px     Ryd( 4p)     0.00019       2.80147
    71    N    3  py     Val( 2p)     1.53130      -0.28461
    72    N    3  py     Ryd( 3p)     0.00232       0.64864
    73    N    3  py     Ryd( 4p)     0.00038       2.32295
    74    N    3  pz     Val( 2p)     1.38230      -0.27976
    75    N    3  pz     Ryd( 3p)     0.00205       1.18414
    76    N    3  pz     Ryd( 4p)     0.00037       2.93510
    77    N    3  dxy    Ryd( 3d)     0.00117       1.49087
    78    N    3  dxy    Ryd( 4d)     0.00009       4.63612
    79    N    3  dxz    Ryd( 3d)     0.00209       1.76099
    80    N    3  dxz    Ryd( 4d)     0.00023       4.94200
    81    N    3  dyz    Ryd( 3d)     0.00192       1.42696
    82    N    3  dyz    Ryd( 4d)     0.00005       4.60420
    83    N    3  dx2y2  Ryd( 3d)     0.00242       1.59527
    84    N    3  dx2y2  Ryd( 4d)     0.00005       4.74493
    85    N    3  dz2    Ryd( 3d)     0.00276       1.68709
    86    N    3  dz2    Ryd( 4d)     0.00011       4.87056
    87    N    3  f(0)   Ryd( 4f)     0.00017       4.70402
    88    N    3  f(C1)  Ryd( 4f)     0.00020       5.22986
    89    N    3  f(S1)  Ryd( 4f)     0.00021       4.58156
    90    N    3  f(C2)  Ryd( 4f)     0.00021       4.63415
    91    N    3  f(S2)  Ryd( 4f)     0.00009       4.55435
    92    N    3  f(C3)  Ryd( 4f)     0.00019       4.52789
    93    N    3  f(S3)  Ryd( 4f)     0.00017       4.50253

    94    C    4  S      Cor( 1S)     1.99887     -10.08371
    95    C    4  S      Val( 2S)     0.93778      -0.18830
    96    C    4  S      Ryd( 3S)     0.00167       0.95441
    97    C    4  S      Ryd( 4S)     0.00056       1.65437
    98    C    4  S      Ryd( 5S)     0.00001      21.83450
    99    C    4  px     Val( 2p)     1.07062      -0.04882
   100    C    4  px     Ryd( 3p)     0.00281       1.12309
   101    C    4  px     Ryd( 4p)     0.00080       1.54895
   102    C    4  py     Val( 2p)     1.02227      -0.09991
   103    C    4  py     Ryd( 3p)     0.00265       0.72912
   104    C    4  py     Ryd( 4p)     0.00057       1.42656
   105    C    4  pz     Val( 2p)     1.01744      -0.05750
   106    C    4  pz     Ryd( 3p)     0.00227       1.02947
   107    C    4  pz     Ryd( 4p)     0.00106       1.80312
   108    C    4  dxy    Ryd( 3d)     0.00063       1.42302
   109    C    4  dxy    Ryd( 4d)     0.00012       3.25355
   110    C    4  dxz    Ryd( 3d)     0.00109       1.91581
   111    C    4  dxz    Ryd( 4d)     0.00053       3.74225
   112    C    4  dyz    Ryd( 3d)     0.00088       1.42860
   113    C    4  dyz    Ryd( 4d)     0.00023       3.36870
   114    C    4  dx2y2  Ryd( 3d)     0.00076       1.67793
   115    C    4  dx2y2  Ryd( 4d)     0.00019       3.58511
   116    C    4  dz2    Ryd( 3d)     0.00178       1.64844
   117    C    4  dz2    Ryd( 4d)     0.00039       3.60981
   118    C    4  f(0)   Ryd( 4f)     0.00011       4.01478
   119    C    4  f(C1)  Ryd( 4f)     0.00004       4.01306
   120    C    4  f(S1)  Ryd( 4f)     0.00007       3.75394
   121    C    4  f(C2)  Ryd( 4f)     0.00012       3.87614
   122    C    4  f(S2)  Ryd( 4f)     0.00007       3.61112
   123    C    4  f(C3)  Ryd( 4f)     0.00007       3.72969
   124    C    4  f(S3)  Ryd( 4f)     0.00006       3.56718

   125    C    5  S      Cor( 1S)     1.99933     -10.14452
   126    C    5  S      Val( 2S)     0.89517      -0.19150
   127    C    5  S      Ryd( 4S)     0.00231       1.41175
   128    C    5  S      Ryd( 3S)     0.00008       1.39558
   129    C    5  S      Ryd( 5S)     0.00000      21.80397
   130    C    5  px     Val( 2p)     1.10102      -0.07729
   131    C    5  px     Ryd( 3p)     0.00307       1.21268
   132    C    5  px     Ryd( 4p)     0.00089       1.41400
   133    C    5  py     Val( 2p)     0.97272      -0.11862
   134    C    5  py     Ryd( 3p)     0.00339       0.80807
   135    C    5  py     Ryd( 4p)     0.00066       1.23119
   136    C    5  pz     Val( 2p)     0.81911      -0.04513
   137    C    5  pz     Ryd( 3p)     0.00461       1.05462
   138    C    5  pz     Ryd( 4p)     0.00073       1.46107
   139    C    5  dxy    Ryd( 4d)     0.00035       3.30171
   140    C    5  dxy    Ryd( 3d)     0.00013       2.42203
   141    C    5  dxz    Ryd( 4d)     0.00038       3.97183
   142    C    5  dxz    Ryd( 3d)     0.00037       2.55796
   143    C    5  dyz    Ryd( 4d)     0.00070       3.51443
   144    C    5  dyz    Ryd( 3d)     0.00015       2.39006
   145    C    5  dx2y2  Ryd( 4d)     0.00041       3.55635
   146    C    5  dx2y2  Ryd( 3d)     0.00016       2.56261
   147    C    5  dz2    Ryd( 4d)     0.00076       3.80988
   148    C    5  dz2    Ryd( 3d)     0.00010       2.64873
   149    C    5  f(0)   Ryd( 4f)     0.00004       3.88777
   150    C    5  f(C1)  Ryd( 4f)     0.00009       4.04279
   151    C    5  f(S1)  Ryd( 4f)     0.00005       3.55462
   152    C    5  f(C2)  Ryd( 4f)     0.00010       3.61296
   153    C    5  f(S2)  Ryd( 4f)     0.00005       3.57452
   154    C    5  f(C3)  Ryd( 4f)     0.00010       3.52576
   155    C    5  f(S3)  Ryd( 4f)     0.00011       3.57981

   156    N    6  S      Cor( 1S)     1.99939     -14.18770
   157    N    6  S      Val( 2S)     1.29274      -0.53481
   158    N    6  S      Ryd( 3S)     0.00472       1.53182
   159    N    6  S      Ryd( 4S)     0.00014       4.05136
   160    N    6  S      Ryd( 5S)     0.00000      31.88262
   161    N    6  px     Val( 2p)     1.19680      -0.17424
   162    N    6  px     Ryd( 3p)     0.01053       1.14165
   163    N    6  px     Ryd( 4p)     0.00018       3.71260
   164    N    6  py     Val( 2p)     1.33585      -0.19650
   165    N    6  py     Ryd( 3p)     0.01068       0.79215
   166    N    6  py     Ryd( 4p)     0.00017       2.73653
   167    N    6  pz     Val( 2p)     1.46366      -0.21428
   168    N    6  pz     Ryd( 3p)     0.01013       1.37314
   169    N    6  pz     Ryd( 4p)     0.00023       3.61945
   170    N    6  dxy    Ryd( 3d)     0.00155       1.49555
   171    N    6  dxy    Ryd( 4d)     0.00020       4.80945
   172    N    6  dxz    Ryd( 3d)     0.00545       1.90380
   173    N    6  dxz    Ryd( 4d)     0.00019       5.11014
   174    N    6  dyz    Ryd( 3d)     0.00389       1.50963
   175    N    6  dyz    Ryd( 4d)     0.00014       4.81556
   176    N    6  dx2y2  Ryd( 3d)     0.00232       1.58972
   177    N    6  dx2y2  Ryd( 4d)     0.00013       4.86403
   178    N    6  dz2    Ryd( 3d)     0.00228       1.59325
   179    N    6  dz2    Ryd( 4d)     0.00022       4.87643
   180    N    6  f(0)   Ryd( 4f)     0.00012       4.64311
   181    N    6  f(C1)  Ryd( 4f)     0.00006       5.03111
   182    N    6  f(S1)  Ryd( 4f)     0.00008       4.39208
   183    N    6  f(C2)  Ryd( 4f)     0.00018       4.79233
   184    N    6  f(S2)  Ryd( 4f)     0.00010       4.68840
   185    N    6  f(C3)  Ryd( 4f)     0.00016       4.60069
   186    N    6  f(S3)  Ryd( 4f)     0.00022       4.58176

   187    C    7  S      Cor( 1S)     1.99944     -10.04571
   188    C    7  S      Val( 2S)     1.09662      -0.28277
   189    C    7  S      Ryd( 3S)     0.00051       1.28766
   190    C    7  S      Ryd( 4S)     0.00048       2.20541
   191    C    7  S      Ryd( 5S)     0.00000      21.63611
   192    C    7  px     Val( 2p)     1.19058      -0.09257
   193    C    7  px     Ryd( 3p)     0.00109       0.99549
   194    C    7  px     Ryd( 4p)     0.00011       1.90023
   195    C    7  py     Val( 2p)     1.10618      -0.08920
   196    C    7  py     Ryd( 3p)     0.00078       0.74650
   197    C    7  py     Ryd( 4p)     0.00030       1.78278
   198    C    7  pz     Val( 2p)     1.20884      -0.09014
   199    C    7  pz     Ryd( 3p)     0.00091       0.91343
   200    C    7  pz     Ryd( 4p)     0.00049       1.49409
   201    C    7  dxy    Ryd( 3d)     0.00173       1.76309
   202    C    7  dxy    Ryd( 4d)     0.00013       3.04682
   203    C    7  dxz    Ryd( 3d)     0.00191       1.62366
   204    C    7  dxz    Ryd( 4d)     0.00005       2.98188
   205    C    7  dyz    Ryd( 3d)     0.00086       1.52999
   206    C    7  dyz    Ryd( 4d)     0.00006       2.88948
   207    C    7  dx2y2  Ryd( 3d)     0.00067       1.48528
   208    C    7  dx2y2  Ryd( 4d)     0.00015       2.85505
   209    C    7  dz2    Ryd( 3d)     0.00148       1.66022
   210    C    7  dz2    Ryd( 4d)     0.00011       2.97604
   211    C    7  f(0)   Ryd( 4f)     0.00004       3.58774
   212    C    7  f(C1)  Ryd( 4f)     0.00006       3.63364
   213    C    7  f(S1)  Ryd( 4f)     0.00003       3.63367
   214    C    7  f(C2)  Ryd( 4f)     0.00003       3.55502
   215    C    7  f(S2)  Ryd( 4f)     0.00004       3.49116
   216    C    7  f(C3)  Ryd( 4f)     0.00008       3.62847
   217    C    7  f(S3)  Ryd( 4f)     0.00005       3.57812

   218    C    8  S      Cor( 1S)     1.99932     -10.09994
   219    C    8  S      Val( 2S)     1.11161      -0.33915
   220    C    8  S      Ryd( 3S)     0.00262       1.46108
   221    C    8  S      Ryd( 4S)     0.00050       1.93846
   222    C    8  S      Ryd( 5S)     0.00000      21.33208
   223    C    8  px     Val( 2p)     1.11634      -0.13044
   224    C    8  px     Ryd( 3p)     0.00091       1.08109
   225    C    8  px     Ryd( 4p)     0.00029       1.42209
   226    C    8  py     Val( 2p)     1.13199      -0.11754
   227    C    8  py     Ryd( 3p)     0.00078       1.05092
   228    C    8  py     Ryd( 4p)     0.00027       1.46476
   229    C    8  pz     Val( 2p)     1.14983      -0.12624
   230    C    8  pz     Ryd( 3p)     0.00080       0.98051
   231    C    8  pz     Ryd( 4p)     0.00096       1.73811
   232    C    8  dxy    Ryd( 3d)     0.00229       1.48145
   233    C    8  dxy    Ryd( 4d)     0.00026       3.40622
   234    C    8  dxz    Ryd( 3d)     0.00308       1.31917
   235    C    8  dxz    Ryd( 4d)     0.00016       3.18305
   236    C    8  dyz    Ryd( 3d)     0.00167       1.31942
   237    C    8  dyz    Ryd( 4d)     0.00014       3.16728
   238    C    8  dx2y2  Ryd( 3d)     0.00149       1.21895
   239    C    8  dx2y2  Ryd( 4d)     0.00011       3.05505
   240    C    8  dz2    Ryd( 3d)     0.00163       1.37024
   241    C    8  dz2    Ryd( 4d)     0.00015       3.27231
   242    C    8  f(0)   Ryd( 4f)     0.00009       3.47381
   243    C    8  f(C1)  Ryd( 4f)     0.00013       3.55165
   244    C    8  f(S1)  Ryd( 4f)     0.00008       3.58959
   245    C    8  f(C2)  Ryd( 4f)     0.00011       3.40306
   246    C    8  f(S2)  Ryd( 4f)     0.00018       3.48340
   247    C    8  f(C3)  Ryd( 4f)     0.00005       3.55848
   248    C    8  f(S3)  Ryd( 4f)     0.00007       3.57297

   249    S    9  S      Cor( 1S)     2.00000     -87.71404
   250    S    9  S      Cor( 2S)     1.99937      -9.06916
   251    S    9  S      Val( 3S)     1.56919      -0.65403
   252    S    9  S      Ryd( 4S)     0.00351       1.87109
   253    S    9  S      Ryd( 5S)     0.00002      18.24030
   254    S    9  px     Cor( 2p)     1.99992      -5.91483
   255    S    9  px     Val( 3p)     1.37589      -0.18296
   256    S    9  px     Ryd( 4p)     0.00612       0.74335
   257    S    9  px     Ryd( 5p)     0.00010       2.59714
   258    S    9  px     Ryd( 6p)     0.00002       8.86226
   259    S    9  py     Cor( 2p)     1.99992      -5.91589
   260    S    9  py     Val( 3p)     1.25524      -0.17583
   261    S    9  py     Ryd( 4p)     0.00657       0.73058
   262    S    9  py     Ryd( 5p)     0.00007       2.61799
   263    S    9  py     Ryd( 6p)     0.00001       8.88709
   264    S    9  pz     Cor( 2p)     1.99982      -5.91433
   265    S    9  pz     Val( 3p)     1.28742      -0.16187
[...]
                                                    1466(r),1666(r),1836(r)
                                                    576(r),1885(r),1098(r)
                                                    424(r),1539(r),349(r)
                                                    1487(r),431(r),1631(r)
                                                    501(r),1837(r),527(r)
                                                    1832(r),392(r),1925(r)
                                                    398(r),1099(r),1721(r)
                                                    439(r),430(r),475(r),1842(r)
                                                    839(r),1512(r),654(r)
                                                    1766(r),1545(r),1902(r)
                                                    1830(r),499(r),578(r),658(r)
                                                    836(r),1838(r),452(r)
                                                    1201(r),1200(r),1281(r)
                                                    1513(r),432(r),1926(r)
                                                    1518(r),837(r),503(r)
                                                    1096(r),1278(r),481(r)
                                                    914(r),1751(r),474(r),917(r)
                                                    1870(r),579(r),1923(r)
                                                    473(r),1280(r),1285(r)
                                                    1538(r),915(r),838(r)
                                                    1909(r),553(r),1868(r)
                                                    525(r),1544(r),291(r),583(r)
                                                    1846(r),1018(r),1542(r)
                                                    507(r),1208(r),1473(r)
                                                    533(r),566(r),1205(r),438(r)
                                                    1821(r),1021(r),663(r)
                                                    399(r),502(r),1853(r)
                                                    1857(r),1786(r),1097(r)
                                                    629(r),1850(r),1283(r)
                                                    847(r),1849(r),1892(r)
                                                    1072(r),1901(r),420(r)
                                                    551(r),844(r),921(r),1879(r)
                                                    445(r),1522(r),1771(r)
                                                    500(r),1103(r),1851(r)
                                                    577(r),846(r),531(r),604(r)
                                                    1253(r),1862(r),1854(r)
                                                    290(r),1101(r),843(r)
                                                    1070(r),1202(r),1204(r)
                                                    1548(r),443(r),1867(r)
                                                    1495(r),1255(r),506(r)
                                                    1045(r),1102(r),1106(r)
                                                    661(r),1858(r),476(r),376(r)
                                                    603(r),1841(r),1227(r)
                                                    1888(r),1931(r),862(r)
                                                    655(r),396(r),606(r),297(r)
                                                    529(r),1075(r),1210(r)
                                                    316(r),479(r),1019(r)
                                                    1859(r),1472(r),1498(r)
                                                    863(r),630(r),1889(r),889(r)
   207. LP*(   7)Fe  53                  0.22748     0.57750  340(r),1514(r),1848(r)
                                                    1846(r),1462(r),1826(r)
                                                    1539(r),1486(r),1515(r)
                                                    1885(r),424(r),208(g)
                                                    1487(r),1538(r),1891(r)
                                                    1854(r),1925(r),1811(r)
                                                    1859(r),1855(r),1851(r)
                                                    418(r),1832(r),1540(r)
                                                    1850(r),1463(r),1566(g)
                                                    1816(r),1569(g),1902(r)
                                                    1884(r),1018(r),422(r)
                                                    1096(r),344(r),550(r)
                                                    1858(r),1889(r),1468(r)
                                                    1567(g),1919(r),1541(r)
                                                    419(r),1906(r),341(r),426(r)
                                                    421(r),1918(r),1098(r)
                                                    342(r),1863(r),1512(r)
                                                    576(r),654(r),1867(r)
                                                    1701(r),1923(r),315(r)
                                                    1842(r),524(r),1666(r)
                                                    343(r),1278(r),425(r)
                                                    1202(r),1279(r),1844(r)
                                                    1853(r),1766(r),1901(r)
                                                    1861(r),526(r),837(r)
                                                    1857(r),1513(r),1099(r)
                                                    1461(r),420(r),1280(r)
                                                    1019(r),1524(r),316(r)
                                                    1520(r),1473(r),1522(r)
                                                    838(r),527(r),394(r),346(r)
                                                    553(r),1460(r),1830(r)
                                                    1834(r),525(r),1021(r)
                                                    915(r),291(r),1544(r)
                                                    1845(r),551(r),314(r),441(r)
                                                    347(r),439(r),1466(r)
                                                    1908(r),474(r),1070(r)
                                                    1831(r),288(r),423(r)
                                                    1886(r),1920(r),1030(r)
                                                    1849(r),1027(r),1516(r)
                                                    1828(r),1490(r),662(r)
                                                    396(r),1203(r),1072(r)
                                                    498(r),296(r),1833(r)
                                                    1862(r),1484(r),1529(r)
                                                    446(r),1105(r),1839(r)
                                                    434(r),552(r),1751(r),236(r)
                                                    588(r),1907(r),1208(r)
                                                    1075(r),1205(r),1044(r)
                                                    1097(r),1492(r),578(r)
                                                    318(r),667(r),1200(r)
   208. LP*(   8)Fe  53                  0.22299     0.58079  1826(r),1859(r),341(r)
                                                    1540(r),1488(r),1513(r)
                                                    1461(r),1851(r),1850(r)
                                                    207(g),1541(r),1565(g)
                                                    1869(r),422(r),1902(r)
                                                    418(r),340(r),1854(r)
                                                    1858(r),1848(r),1863(r)
                                                    1846(r),1487(r),1489(r)
                                                    1462(r),1828(r),1908(r)
                                                    1901(r),1839(r),1200(r)
                                                    1278(r),1885(r),1862(r)
                                                    1830(r),1889(r),1864(r)
                                                    429(r),343(r),836(r),1923(r)
                                                    1538(r),1906(r),1919(r)
                                                    1816(r),288(r),423(r)
                                                    1463(r),550(r),914(r)
                                                    1569(g),1855(r),1849(r)
                                                    524(r),421(r),1857(r)
                                                    1867(r),1494(r),500(r)
                                                    425(r),1495(r),1514(r)
                                                    552(r),345(r),498(r),392(r)
                                                    1498(r),1020(r),655(r)
                                                    315(r),654(r),1280(r)
                                                    1811(r),1203(r),1201(r)
                                                    342(r),1842(r),1097(r)
                                                    1701(r),475(r),450(r)
                                                    1844(r),1539(r),1519(r)
                                                    1467(r),419(r),1019(r)
                                                    577(r),1548(r),1832(r)
                                                    1831(r),1836(r),473(r)
                                                    292(r),1721(r),1281(r)
                                                    433(r),1516(r),344(r),526(r)
                                                    446(r),1731(r),1500(r)
                                                    576(r),1465(r),1491(r)
                                                    290(r),294(r),297(r),1551(r)
                                                    1861(r),837(r),1096(r)
                                                    1841(r),420(r),1026(r)
                                                    603(r),1853(r),1843(r)
                                                    1903(r),505(r),249(r)
                                                    1202(r),1549(r),1229(r)
                                                    1563(r),847(r),656(r),925(r)
                                                    333(r)
   209. LP*(   9)Fe  53                  0.21532     0.47116  1830(r),342(r),343(r)
                                                    1569(g),1832(r),1488(r)
                                                    1816(r),1811(r),1863(r)
                                                    1460(r),1908(r),1512(r)
                                                    1891(r),1462(r),1489(r)
                                                    1853(r),1867(r),498(r)
                                                    1463(r),1538(r),418(r)
                                                    1826(r),288(r),340(r)
                                                    1487(r),1567(g),1831(r)
                                                    1568(g),550(r),1919(r)
                                                    1834(r),1884(r),424(r)
                                                    1542(r),1516(r),419(r)
                                                    314(r),1539(r),472(r)
                                                    1857(r),1464(r),576(r)
                                                    1486(r),1515(r),1493(r)
                                                    838(r),1918(r),318(r)
                                                    1844(r),426(r),583(r)
                                                    1892(r),292(r),654(r),316(r)
                                                    915(r),1870(r),836(r)
                                                    1854(r),474(r),1546(r)
                                                    1836(r),1909(r),289(r)
                                                    527(r),839(r),1846(r),914(r)
                                                    449(r),1862(r),1926(r)
                                                    1666(r),1520(r),1099(r)
                                                    236(r),448(r),249(r),1461(r)
                                                    579(r),1766(r),394(r)
                                                    1845(r),501(r),366(r)
                                                    1514(r),506(r),1901(r)
                                                    1751(r),1701(r),1833(r)
                                                    1631(r),524(r),1020(r)
                                                    422(r),1842(r),525(r),663(r)
                                                    1721(r),315(r),1513(r)
                                                    917(r),578(r),658(r),341(r)
                                                    844(r),319(r),291(r),1925(r)
                                                    629(r),290(r),1786(r)
                                                    1021(r),1821(r),428(r)
                                                    1203(r),1541(r),533(r)
                                                    1787(r),1896(r),1549(r)
                                                    480(r),1473(r),473(r),347(r)
                                                    450(r),888(r),1906(r),499(r)
                                                    1835(r),420(r),606(r)
                                                    1885(r),925(r),1465(r)
                                                    439(r),1858(r),1851(r)
                                                    475(r),1098(r),1519(r)
                                                    238(r),500(r),657(r),1913(r)
                                                    582(r),1202(r),1524(r)
  1564. RY*(   1)Fe  53                  0.01304     1.26742   
  1565. RY*(   2)Fe  53                  0.00698     0.72410   
  1566. RY*(   3)Fe  53                  0.00486     0.89738   
  1567. RY*(   4)Fe  53                  0.00313     1.12656   
  1568. RY*(   5)Fe  53                  0.00243     1.13258   
  1569. RY*(   6)Fe  53                  0.00162     1.40793   
  1570. RY*(   7)Fe  53                  0.00041     2.65413   
  1571. RY*(   8)Fe  53                  0.00030     1.69291   
  1572. RY*(   9)Fe  53                  0.00020     2.08203   
  1573. RY*(  10)Fe  53                  0.00021     2.66013   
  1574. RY*(  11)Fe  53                  0.00018     2.21207   
  1575. RY*(  12)Fe  53                  0.00010     2.42806   
  1576. RY*(  13)Fe  53                  0.00008     3.32095   
  1577. RY*(  14)Fe  53                  0.00005     2.75812   
  1578. RY*(  15)Fe  53                  0.00005     2.99771   
  1579. RY*(  16)Fe  53                  0.00005     2.65148   
  1580. RY*(  17)Fe  53                  0.00005     3.39751   
  1581. RY*(  18)Fe  53                  0.00002     2.77337   
  1582. RY*(  19)Fe  53                  0.00003     2.91735   
  1583. RY*(  20)Fe  53                  0.00003     3.43461   
  1584. RY*(  21)Fe  53                  0.00002     4.27503   
  1585. RY*(  22)Fe  53                  0.00003     3.77102   
  1586. RY*(  23)Fe  53                  0.00003     4.19074   
  1587. RY*(  24)Fe  53                  0.00000     4.19886   
  1588. RY*(  25)Fe  53                  0.00001     2.79258   
  1589. RY*(  26)Fe  53                  0.00001     4.20268   
  1590. RY*(  27)Fe  53                  0.00001     4.20887   
       -------------------------------
              Total Lewis   24.38679  ( 94.0307%)
        Valence non-Lewis    1.51420  (  5.8384%)
        Rydberg non-Lewis    0.03394  (  0.1309%)
       -------------------------------
            Total unit  4   25.93493  (100.0000%)
           Charge unit  4    0.06507
 1\1\GINC-NODE372\SP\RPBE1PBE\def2TZVP\C41H46Fe1N6O4S1\ZHARTOVSKA\16-Ja
 n-2023\0\\# PBE1PBE/def2TZVP empiricaldispersion=GD3BJ int=(grid=ultra
 fine) geom=check guess=read pop=nbo scf=qc\\1c6r_II_S_nbo\\0,1\C,0,8.8
 9,8.219,4.835\C,0,8.542,9.673,4.721\N,0,9.424,10.61,4.23\C,0,7.431,10.
 356,5.086\C,0,8.878,11.811,4.304\N,0,7.668,11.684,4.819\C,0,4.888,17.0
 37001,4.584\C,0,4.631,16.620001,6.026\S,0,4.631,14.848,6.261\C,0,4.365
 ,14.756,8.063\C,0,8.735,15.487,5.374\C,0,7.2,12.459,8.761\C,0,3.75,11.
 022,5.782\C,0,5.717,13.521,2.146\C,0,8.67,14.779,6.56\C,0,9.56,14.991,
 7.706\C,0,9.051,14.192,8.704\C,0,7.94,13.454,8.12\C,0,9.493,14.114,10.
 165\C,0,10.815,15.92,7.701\C,0,11.998,15.412,6.85\C,0,13.116,16.438999
 ,6.68\O,0,14.251,16.030001,6.325\O,0,12.866,17.65,6.869\C,0,6.098,11.7
 82,8.238\C,0,5.333,10.788,8.931\C,0,4.295,10.442,8.131\C,0,4.479,11.22
 5,6.939\C,0,5.678,10.242,10.31\C,0,3.22,9.557,8.391\C,0,2.224,9.871,9.
 331\C,0,4.,11.535,4.54\C,0,3.264,11.197,3.338\C,0,3.857,11.84,2.313\C,
 0,4.947,12.6,2.87\C,0,2.19,10.125,3.253\C,0,3.625,11.653,0.936\C,0,2.4
 43,12.128,0.328\C,0,6.634,14.375,2.733\C,0,7.324,15.495,2.068\C,0,8.11
 8,16.086,2.995\C,0,7.947,15.317,4.238\C,0,7.232,15.862,0.614\C,0,9.001
 ,17.297001,2.816\C,0,8.309,18.487,3.442\C,0,8.967,19.802999,3.062\O,0,
 9.935,20.219999,3.735\O,0,8.548,20.422001,2.068\N,0,7.704,13.845,6.815
 \N,0,5.584,12.017,7.002\N,0,5.036,12.387,4.26\N,0,6.991,14.326,4.102\F
 e,0,6.33,13.14,5.558\H,0,13.58468023,18.27886097,6.96714585\H,0,12.404
 31272,14.5390858,7.31672344\H,0,11.63122057,15.14310058,5.88146195\H,0
 ,10.52155682,16.87983182,7.33017123\H,0,11.15175042,16.03592022,8.7099
 9042\H,0,10.43246649,14.61295289,10.28053668\H,0,8.75982497,14.5860137
 8,10.78512689\H,0,9.59614573,13.08842677,10.45215936\H,0,7.50791538,12
 .18931582,9.74961447\H,0,6.60974084,10.65596075,10.63464673\H,0,4.9078
 7415,10.51022619,11.00271992\H,0,5.7588075,9.17615311,10.26162065\H,0,
 2.44773403,10.52173565,10.15038159\H,0,1.24178262,9.45938383,9.2274569
 9\H,0,3.16527293,8.62954242,7.86022002\H,0,2.89076353,10.39027893,5.86
 883994\H,0,2.55611562,9.21811778,3.68707832\H,0,1.31980188,10.44899944
 ,3.78467621\H,0,1.93795875,9.95316709,2.22740327\H,0,2.4623702,12.4673
 844,-0.68656544\H,0,1.52762269,12.14868727,0.88167537\H,0,4.35527065,1
 1.14361116,0.34259644\H,0,5.5890079,13.56591299,1.08463256\H,0,8.08217
 155,15.47315201,0.0935141\H,0,6.33814784,15.44696689,0.19725567\H,0,7.
 2101597,16.92725257,0.51571492\H,0,9.47769304,16.25556691,5.32289285\H
 ,0,9.94166855,17.13191877,3.29848372\H,0,9.15742727,17.47828317,1.7731
 3506\H,0,8.33418803,18.38182338,4.50652029\H,0,7.28899129,18.50382819,
 3.11920122\H,0,9.16906913,20.80896693,1.44660599\H,0,5.80931057,16.609
 15603,4.24779245\H,0,4.0870674,16.69106919,3.96453398\H,0,4.94818898,1
 8.10375995,4.52653141\H,0,5.39006379,17.04799101,6.64692408\H,0,3.6804
 9601,17.00597242,6.33008589\H,0,5.17729152,15.2352587,8.5683648\H,0,3.
 44867207,15.24825227,8.31386016\H,0,4.31298179,13.73051525,8.36395704\
 H,0,9.82257476,8.11470751,5.3491278\H,0,8.12298422,7.71041323,5.380826
 25\H,0,8.97277949,7.79428115,3.85639821\H,0,10.33673412,10.41196317,3.
 87265164\H,0,9.33680581,12.72836708,3.99931186\H,0,6.53752333,9.940743
 47,5.50332655\\Version=ES64L-G16RevA.03\State=1-A\HF=-3879.4225662\RMS
 D=3.030e-09\Dipole=0.0738096,-0.7903693,-0.5791558\Quadrupole=-22.9747
 603,9.7609957,13.2137646,-9.2063955,-6.0700962,-3.8976506\PG=C01 [X(C4
 1H46Fe1N6O4S1)]\\@


 FLOATING POINT NUMBERS ARE LIKE SANDPILES:
 EVERY TIME THAT YOU MOVE ONE, YOU LOSE A LITTLE SAND 
 AND YOU PICK UP A LITTLE DIRT.
 Job cpu time:       0 days  3 hours 55 minutes 29.0 seconds.
 Elapsed time:       0 days  0 hours 59 minutes 10.3 seconds.
 File lengths (MBytes):  RWF=   1267 Int=      0 D2E=      0 Chk=    254 Scr=      1
 Normal termination of Gaussian 16 at Mon Jan 16 20:37:39 2023.
