 Entering Gaussian System, Link 0=g16
 Input=/net/homes/chemie/zhartovska/work/BioModel/Konrad/1c75/1c7512/1c7516/1c7516.com
 Output=/net/homes/chemie/zhartovska/work/BioModel/Konrad/1c75/1c7512/1c7516/1c7516.log
 Initial command:
 /afs/math/software/gaussian/g16.A03/g16/l1.exe "/scratch/zhartovska_gaussian.pAR5QCW/Gau-14165.inp" -scrdir="/scratch/zhartovska_gaussian.pAR5QCW/"
 Entering Link 1 = /afs/math/software/gaussian/g16.A03/g16/l1.exe PID=     14166.
  
 Copyright (c) 1988,1990,1992,1993,1995,1998,2003,2009,2016,
            Gaussian, Inc.  All Rights Reserved.
  
 This is part of the Gaussian(R) 16 program.  It is based on
 the Gaussian(R) 09 system (copyright 2009, Gaussian, Inc.),
 the Gaussian(R) 03 system (copyright 2003, Gaussian, Inc.),
 the Gaussian(R) 98 system (copyright 1998, Gaussian, Inc.),
 the Gaussian(R) 94 system (copyright 1995, Gaussian, Inc.),
 the Gaussian 92(TM) system (copyright 1992, Gaussian, Inc.),
 the Gaussian 90(TM) system (copyright 1990, Gaussian, Inc.),
 the Gaussian 88(TM) system (copyright 1988, Gaussian, Inc.),
 the Gaussian 86(TM) system (copyright 1986, Carnegie Mellon
 University), and the Gaussian 82(TM) system (copyright 1983,
 Carnegie Mellon University). Gaussian is a federally registered
 trademark of Gaussian, Inc.
  
 This software contains proprietary and confidential information,
 including trade secrets, belonging to Gaussian, Inc.
  
 This software is provided under written license and may be
 used, copied, transmitted, or stored only in accord with that
 written license.
  
 The following legend is applicable only to US Government
 contracts under FAR:
  
                    RESTRICTED RIGHTS LEGEND
  
 Use, reproduction and disclosure by the US Government is
 subject to restrictions as set forth in subparagraphs (a)
 and (c) of the Commercial Computer Software - Restricted
 Rights clause in FAR 52.227-19.
  
 Gaussian, Inc.
 340 Quinnipiac St., Bldg. 40, Wallingford CT 06492
  
  
 ---------------------------------------------------------------
 Warning -- This program may not be used in any manner that
 competes with the business of Gaussian, Inc. or will provide
 assistance to any competitor of Gaussian, Inc.  The licensee
 of this program is prohibited from giving any competitor of
 Gaussian, Inc. access to this program.  By using this program,
 the user acknowledges that Gaussian, Inc. is engaged in the
 business of creating and licensing software in the field of
 computational chemistry and represents and warrants to the
 licensee that it is not a competitor of Gaussian, Inc. and that
 it will not use this program in any manner prohibited above.
 ---------------------------------------------------------------
  

 Cite this work as:
 Gaussian 16, Revision A.03,
 M. J. Frisch, G. W. Trucks, H. B. Schlegel, G. E. Scuseria, 
 M. A. Robb, J. R. Cheeseman, G. Scalmani, V. Barone, 
 G. A. Petersson, H. Nakatsuji, X. Li, M. Caricato, A. V. Marenich, 
 J. Bloino, B. G. Janesko, R. Gomperts, B. Mennucci, H. P. Hratchian, 
 J. V. Ortiz, A. F. Izmaylov, J. L. Sonnenberg, D. Williams-Young, 
 F. Ding, F. Lipparini, F. Egidi, J. Goings, B. Peng, A. Petrone, 
 T. Henderson, D. Ranasinghe, V. G. Zakrzewski, J. Gao, N. Rega, 
 G. Zheng, W. Liang, M. Hada, M. Ehara, K. Toyota, R. Fukuda, 
 J. Hasegawa, M. Ishida, T. Nakajima, Y. Honda, O. Kitao, H. Nakai, 
 T. Vreven, K. Throssell, J. A. Montgomery, Jr., J. E. Peralta, 
 F. Ogliaro, M. J. Bearpark, J. J. Heyd, E. N. Brothers, K. N. Kudin, 
 V. N. Staroverov, T. A. Keith, R. Kobayashi, J. Normand, 
 K. Raghavachari, A. P. Rendell, J. C. Burant, S. S. Iyengar, 
 J. Tomasi, M. Cossi, J. M. Millam, M. Klene, C. Adamo, R. Cammi, 
 J. W. Ochterski, R. L. Martin, K. Morokuma, O. Farkas, 
 J. B. Foresman, and D. J. Fox, Gaussian, Inc., Wallingford CT, 2016.
 
 ******************************************
 Gaussian 16:  ES64L-G16RevA.03 25-Dec-2016
                 4-Jan-2023 
 ******************************************
 %nprocs=12
 Will use up to   12 processors via shared memory.
 %mem=16GB
 %oldchk=1c75_III_D.chk
 %chk=1c75_III_H.chk
 Copying data from "1c75_III_D.chk" to current chk file "1c75_III_H.chk"
 IOpt=  2 FromEx=T IUOpen= 4 IOptOp= 5 NList=   0 IFRang= 0 IUIn= 4 IUOut= 2.
 ----------------------------------------------------------------------
 # PBE1PBE/def2TZVP scf=maxcycle=999 empiricaldispersion=GD3BJ int=(gri
 d=ultrafine) geom=check pop=nbo
 ----------------------------------------------------------------------
 1/29=2,38=1,172=1/1;
 2/12=2,40=1/2;
 3/5=44,7=101,11=2,14=-4,25=1,30=1,74=-13,75=-5,124=41/1,2,3;
 4//1;
 5/5=2,7=999,38=5/2;
 6/7=2,8=2,9=2,10=2,28=1,40=1/1,7;
 99/5=1,9=1/99;
 ----------
 1c75_III_H
 ----------
 Structure from the checkpoint file:  "1c75_III_H.chk"
 Charge =  1 Multiplicity = 6
 Z-Matrix found in chk file.
 C,0,14.33,22.021,6.122
 C,0,13.799,22.662,4.866
 N,0,14.606,23.313,4.
 C,0,12.558,22.732,4.329
 C,0,13.866,23.798,2.987
 N,0,12.611,23.461,3.171
 H,0,13.51231112,21.67303303,6.71798983
 H,0,14.89576136,22.73956268,6.67741135
 H,0,15.457,23.402,4.083
 H,0,11.792,22.347,4.689
 H,0,14.191,24.293,2.27
 C,0,10.185,23.957,-2.066
 C,0,9.307,23.606,-0.895
 S,0,9.505,24.779,0.466
 C,0,7.878,24.65,1.219
 H,0,11.19513518,24.07229612,-1.73248281
 H,0,9.84698146,24.87322448,-2.50323696
 H,0,8.379,23.601,-1.18
 H,0,9.528,22.714,-0.584
 H,0,7.726,23.744,1.499
 H,0,7.831,25.232,1.98
 H,0,7.209,24.903,0.58
 Fe,0,11.14,24.004,1.938
 C,0,13.08,26.199,0.234
 C,0,10.285,26.45,4.144
 C,0,9.038,21.828,3.528
 C,0,12.199,21.455,-0.043
 N,0,11.604,25.933,2.157
 C,0,12.406,26.699,1.345
 C,0,12.449,28.063,1.797
 C,0,11.708,28.122,2.933
 C,0,11.159,26.792,3.132
 C,0,11.456,29.284,3.835
 C,0,13.219,29.185,1.129
 C,0,14.759,29.023,1.193
 C,0,15.299,28.908,2.489
 O,0,14.902,29.575,3.464
 O,0,16.211,28.005,2.635
 N,0,9.913,24.117,3.481
 C,0,9.685,25.205,4.291
 C,0,8.749,24.893,5.346
 C,0,8.34,23.617,5.135
 C,0,9.085,23.133,3.989
 C,0,8.382,25.85,6.444
 C,0,7.364,22.794,5.922
 C,0,5.937,23.397,5.937
 N,0,10.676,22.083,1.735
 C,0,9.779,21.33,2.504
 C,0,9.819,19.936,2.13
 C,0,10.695,19.85,1.125
 C,0,11.232,21.157,0.897
 C,0,9.046,18.849,2.831
 C,0,11.219,18.578,0.474
 C,0,10.056,17.739,-0.135
 N,0,12.383,23.864,0.416
 C,0,12.729,22.72,-0.275
 C,0,13.683,23.005,-1.331
 C,0,13.94,24.327,-1.237
 C,0,13.103,24.858,-0.158
 C,0,14.186,21.964,-2.273
 C,0,14.809,25.221,-2.071
 C,0,13.96,26.122,-3.063
 C,0,14.517,27.402,-3.223
 O,0,15.147,27.684,-4.29
 O,0,14.468,28.25,-2.292
 H,0,13.552,26.806,-0.29
 H,0,10.082,27.101,4.775
 H,0,8.451,21.245,3.953
 H,0,12.52,20.754,-0.563
 H,0,10.526,29.521,3.8
 H,0,11.692,29.047,4.735
 H,0,11.988,30.031,3.551
 H,0,12.977,30.024,1.551
 H,0,12.95,29.236,0.199
 H,0,15.006,28.234,0.686
 H,0,15.166,29.789,0.757
 H,0,16.531,28.058,3.389
 H,0,7.987,26.638,6.064
 H,0,7.753,25.431,7.036
 H,0,9.171,26.092,6.934
 H,0,7.31853251,21.81367103,5.49563418
 H,0,5.26818918,22.71850146,6.42406449
 H,0,5.94848736,24.32740143,6.46531925
 H,0,8.993,19.046,3.768
 H,0,8.16,18.799,2.464
 H,0,9.491,18.008,2.706
 H,0,11.90715192,18.83921912,-0.30260255
 H,0,9.32701362,17.53773829,0.62194953
 H,0,10.44227641,16.81541574,-0.51273356
 H,0,14.712,21.323,-1.791
 H,0,13.442,21.52,-2.687
 H,0,14.727,22.379,-2.949
 H,0,15.33,25.794,-1.487
 H,0,15.427,24.677,-2.583
 H,0,13.91,25.685,-3.927
 H,0,13.056,26.208,-2.721
 H,0,16.10698849,27.68520104,-4.29454437
 H,0,11.72705005,17.9907918,1.21018726
 H,0,9.59998839,18.28764013,-0.93246312
 H,0,7.71464718,22.71539962,6.92985343
 H,0,5.60875367,23.56156424,4.93197614
 H,0,14.9590038,21.19521428,5.8625156
 H,0,10.1370678,23.17501099,-2.79476312
 Recover connectivity data from disk.
 Stoichiometry    C41H50FeN6O4S(1+,6)
 Framework group  C1[X(C41H50FeN6O4S)]
 Deg. of freedom   303
 Full point group                 C1      NOp   1
 Largest Abelian subgroup         C1      NOp   1
 Largest concise Abelian subgroup C1      NOp   1
                         Standard orientation:                         
 ---------------------------------------------------------------------
 Center     Atomic      Atomic             Coordinates (Angstroms)
 Number     Number       Type             X           Y           Z
 ---------------------------------------------------------------------
      1          6           0        1.988514   -1.363995    5.135746
      2          6           0        1.309179   -0.922373    3.865371
      3          7           0        0.005782   -0.568227    3.838112
      4          6           0        1.756051   -0.761386    2.597404
      5          6           0       -0.335952   -0.240447    2.579235
      6          7           0        0.715961   -0.357934    1.803267
      7          1           0        2.974308   -1.713563    4.910108
      8          1           0        1.424313   -2.153895    5.585897
      9          1           0       -0.520717   -0.553825    4.517525
     10          1           0        2.629440   -0.902522    2.311305
     11          1           0       -1.182287    0.027172    2.302040
     12          6           0       -0.538977    2.854895   -2.850819
     13          6           0        0.743999    2.067983   -2.842584
     14         16           0        0.458144    0.324775   -2.459223
     15          6           0        1.848568   -0.410796   -3.328956
     16          1           0       -1.064358    2.690103   -1.933367
     17          1           0       -1.146958    2.537239   -3.672009
     18          1           0        1.168996    2.138248   -3.712570
     19          1           0        1.348256    2.445957   -2.184379
     20          1           0        2.669339   -0.059296   -2.975229
     21          1           0        1.831523   -1.362638   -3.211651
     22          1           0        1.788207   -0.201679   -4.263043
     23         26           0        0.669718   -0.018140   -0.161772
     24          6           0       -2.713399    0.144189   -0.277583
     25          6           0        0.540270   -3.380201   -0.671840
     26          6           0        4.084786   -0.133004   -0.236559
     27          6           0        0.848416    3.274303    0.657452
     28          7           0       -0.793312   -1.353772   -0.406581
     29          6           0       -2.146093   -1.114995   -0.454265
     30          6           0       -2.877517   -2.326387   -0.707635
     31          6           0       -1.965045   -3.330188   -0.760886
     32          6           0       -0.662602   -2.706960   -0.602356
     33          6           0       -2.183812   -4.793995   -0.952621
     34          6           0       -4.383827   -2.430037   -0.842890
     35          6           0       -5.159995   -2.131048    0.464821
     36          6           0       -4.818812   -2.940621    1.566014
     37          8           0       -4.588492   -4.162346    1.479615
     38          8           0       -4.691361   -2.323502    2.693573
     39          7           0        2.017936   -1.437479   -0.420487
     40          6           0        1.792795   -2.780983   -0.610582
     41          6           0        3.031816   -3.515482   -0.719231
     42          6           0        4.030271   -2.598608   -0.670152
     43          6           0        3.394405   -1.312418   -0.460420
     44          6           0        3.106396   -5.011587   -0.829910
     45          6           0        5.512963   -2.809285   -0.750856
     46          6           0        5.963607   -3.434159   -2.094961
     47          7           0        2.134629    1.300368    0.087860
     48          6           0        3.515668    1.070398    0.034713
     49          6           0        4.253078    2.255905    0.402831
     50          6           0        3.337668    3.200449    0.636623
     51          6           0        2.044600    2.611853    0.463037
     52          6           0        5.752708    2.311827    0.538780
     53          6           0        3.581766    4.590419    1.206500
     54          6           0        4.556243    5.404143    0.303384
     55          7           0       -0.660504    1.405443    0.129868
     56          6           0       -0.414291    2.714701    0.492022
     57          6           0       -1.646426    3.470204    0.624448
     58          6           0       -2.638221    2.587186    0.381157
     59          6           0       -2.009382    1.306271    0.048605
     60          6           0       -1.675237    4.925308    0.949865
     61          6           0       -4.126032    2.770340    0.328014
     62          6           0       -4.671151    2.796799   -1.161554
     63          6           0       -5.927392    2.177946   -1.276138
     64          8           0       -6.970381    2.892634   -1.403835
     65          8           0       -6.043991    0.927046   -1.176534
     66          1           0       -3.634535    0.218387   -0.386269
     67          1           0        0.511051   -4.303943   -0.766807
     68          1           0        5.013438   -0.166782   -0.275899
     69          1           0        0.891097    4.165906    0.918343
     70          1           0       -1.806272   -5.067098   -1.792366
     71          1           0       -1.759647   -5.276653   -0.239186
     72          1           0       -3.125639   -4.980108   -0.949012
     73          1           0       -4.609610   -3.325019   -1.140544
     74          1           0       -4.677892   -1.810106   -1.527780
     75          1           0       -5.008874   -1.204011    0.706366
     76          1           0       -6.108951   -2.235470    0.288526
     77          1           0       -4.576304   -2.870971    3.294210
     78          1           0        2.643552   -5.298239   -1.620463
     79          1           0        4.025894   -5.282644   -0.882036
     80          1           0        2.698208   -5.409909   -0.057960
     81          1           0        6.001492   -1.865054   -0.629750
     82          1           0        7.032465   -3.465567   -2.133100
     83          1           0        5.574521   -4.427722   -2.174606
     84          1           0        6.075426    1.475953    0.880472
     85          1           0        6.145827    2.479036   -0.321269
     86          1           0        5.993444    3.018033    1.142312
     87          1           0        2.649163    5.110599    1.274060
     88          1           0        5.464198    4.853535    0.171674
     89          1           0        4.772871    6.343324    0.768048
     90          1           0       -1.342105    5.061456    1.838891
     91          1           0       -1.124704    5.404267    0.325702
     92          1           0       -2.577784    5.247892    0.893025
     93          1           0       -4.553701    2.045972    0.810938
     94          1           0       -4.360564    3.601364    0.768919
     95          1           0       -4.739779    3.716793   -1.459659
     96          1           0       -4.038232    2.343435   -1.740735
     97          1           0       -7.542430    3.046284   -0.648353
     98          1           0        4.004329    4.499025    2.185268
     99          1           0        4.100909    5.574418   -0.649809
    100          1           0        5.812149   -3.456753    0.046748
    101          1           0        5.595075   -2.840761   -2.905493
    102          1           0        2.049333   -0.538135    5.813356
    103          1           0       -0.317703    3.896774   -2.952935
 ---------------------------------------------------------------------
 Rotational constants (GHZ):           0.0685102           0.0478643           0.0371508
 Standard basis: def2TZVP (5D, 7F)
 There are  2230 symmetry adapted cartesian basis functions of A   symmetry.
 There are  1963 symmetry adapted basis functions of A   symmetry.
  1963 basis functions,  3172 primitive gaussians,  2230 cartesian basis functions
   208 alpha electrons      203 beta electrons
       nuclear repulsion energy      9239.8544748852 Hartrees.
 NAtoms=  103 NActive=  103 NUniq=  103 SFac= 1.00D+00 NAtFMM=   60 NAOKFM=T Big=T
 Integral buffers will be    131072 words long.
 Raffenetti 2 integral format.
 Two-electron integral symmetry is turned on.
 Nuclear repulsion after empirical dispersion term =     9239.6981861257 Hartrees.
 One-electron integrals computed using PRISM.
   1 Symmetry operations used in ECPInt.
 ECPInt:  NShTT=  311655 NPrTT=  958403 LenC2=  232720 LenP2D=  464538.
 LDataN:  DoStor=T MaxTD1= 6 Len=  172
 NBasis=  1963 RedAO= T EigKep=  2.72D-06  NBF=  1963
 NBsUse=  1963 1.00D-06 EigRej= -1.00D+00 NBFU=  1963
 ExpMin= 4.20D-02 ExpMax= 3.01D+05 ExpMxC= 2.91D+03 IAcc=3 IRadAn=         5 AccDes= 0.00D+00
 Harris functional with IExCor= 1009 and IRadAn=       5 diagonalized for initial guess.
 HarFok:  IExCor= 1009 AccDes= 0.00D+00 IRadAn=         5 IDoV= 1 UseB2=F ITyADJ=14
 ICtDFT=  3500011 ScaDFX=  1.000000  1.000000  1.000000  1.000000
 FoFCou: FMM=F IPFlag=           0 FMFlag=      100000 FMFlg1=        2001
         NFxFlg=           0 DoJE=T BraDBF=F KetDBF=T FulRan=T
         wScrn=  0.000000 ICntrl=       500 IOpCl=  0 I1Cent=   200000004 NGrid=           0
         NMat0=    1 NMatS0=      1 NMatT0=    0 NMatD0=    1 NMtDS0=    0 NMtDT0=    0
 Petite list used in FoFCou.
 Initial guess <Sx>= 0.0000 <Sy>= 0.0000 <Sz>= 2.5000 <S**2>= 8.7500 S= 2.5000
 Requested convergence on RMS density matrix=1.00D-08 within 999 cycles.
 Requested convergence on MAX density matrix=1.00D-06.
 Requested convergence on             energy=1.00D-06.
 No special actions if energy rises.
 EnCoef did   100 forward-backward iterations
 EnCoef did     4 forward-backward iterations
 EnCoef did     9 forward-backward iterations
 EnCoef did   100 forward-backward iterations
 Restarting incremental Fock formation.
 SCF Done:  E(UPBE1PBE) =  -3881.26772647     A.U. after   27 cycles
            NFock= 27  Conv=0.90D-08     -V/T= 2.0008
 <Sx>= 0.0000 <Sy>= 0.0000 <Sz>= 2.5000 <S**2>= 8.7601 S= 2.5017
 <L.S>= 0.000000000000E+00
 Annihilation of the first spin contaminant:
 S**2 before annihilation     8.7601,   after     8.7500
 Hyperfine terms turned off by default for NAtoms > 100.

 **********************************************************************

            Population analysis using the SCF density.

 **********************************************************************

 Orbital symmetries:
 Alpha Orbitals:
       Occupied  (A) (A) (A) (A) (A) (A) (A) (A) (A) (A) (A) (A)
                 (A) (A) (A) (A) (A) (A) (A) (A) (A) (A) (A) (A)
                 (A) (A) (A) (A) (A) (A) (A) (A) (A) (A) (A) (A)
                 (A) (A) (A) (A) (A) (A) (A) (A) (A) (A) (A) (A)
                 (A) (A) (A) (A) (A) (A) (A) (A) (A) (A) (A) (A)
                 (A) (A) (A) (A) (A) (A) (A) (A) (A) (A) (A) (A)
                 (A) (A) (A) (A) (A) (A) (A) (A) (A) (A) (A) (A)
                 (A) (A) (A) (A) (A) (A) (A) (A) (A) (A) (A) (A)
                 (A) (A) (A) (A) (A) (A) (A) (A) (A) (A) (A) (A)
                 (A) (A) (A) (A) (A) (A) (A) (A) (A) (A) (A) (A)
                 (A) (A) (A) (A) (A) (A) (A) (A) (A) (A) (A) (A)
                 (A) (A) (A) (A) (A) (A) (A) (A) (A) (A) (A) (A)
                 (A) (A) (A) (A) (A) (A) (A) (A) (A) (A) (A) (A)
                 (A) (A) (A) (A) (A) (A) (A) (A) (A) (A) (A) (A)
                 (A) (A) (A) (A) (A) (A) (A) (A) (A) (A) (A) (A)
                 (A) (A) (A) (A) (A) (A) (A) (A) (A) (A) (A) (A)
                 (A) (A) (A) (A) (A) (A) (A) (A) (A) (A) (A) (A)
                 (A) (A) (A) (A)
       Virtual   (A) (A) (A) (A) (A) (A) (A) (A) (A) (A) (A) (A)
                 (A) (A) (A) (A) (A) (A) (A) (A) (A) (A) (A) (A)
                 (A) (A) (A) (A) (A) (A) (A) (A) (A) (A) (A) (A)
                 (A) (A) (A) (A) (A) (A) (A) (A) (A) (A) (A) (A)
                 (A) (A) (A) (A) (A) (A) (A) (A) (A) (A) (A) (A)
                 (A) (A) (A) (A) (A) (A) (A) (A) (A) (A) (A) (A)
                 (A) (A) (A) (A) (A) (A) (A) (A) (A) (A) (A) (A)
                 (A) (A) (A) (A) (A) (A) (A) (A) (A) (A) (A) (A)
                 (A) (A) (A) (A) (A) (A) (A) (A) (A) (A) (A) (A)
                 (A) (A) (A) (A) (A) (A) (A) (A) (A) (A) (A) (A)
                 (A) (A) (A) (A) (A) (A) (A) (A) (A) (A) (A) (A)
                 (A) (A) (A) (A) (A) (A) (A) (A) (A) (A) (A) (A)
                 (A) (A) (A) (A) (A) (A) (A) (A) (A) (A) (A) (A)
                 (A) (A) (A) (A) (A) (A) (A) (A) (A) (A) (A) (A)
                 (A) (A) (A) (A) (A) (A) (A) (A) (A) (A) (A) (A)
                 (A) (A) (A) (A) (A) (A) (A) (A) (A) (A) (A) (A)
                 (A) (A) (A) (A) (A) (A) (A) (A) (A) (A) (A) (A)
                 (A) (A) (A) (A) (A) (A) (A) (A) (A) (A) (A) (A)
                 (A) (A) (A) (A) (A) (A) (A) (A) (A) (A) (A) (A)
                 (A) (A) (A) (A) (A) (A) (A) (A) (A) (A) (A) (A)
                 (A) (A) (A) (A) (A) (A) (A) (A) (A) (A) (A) (A)
                 (A) (A) (A) (A) (A) (A) (A) (A) (A) (A) (A) (A)
                 (A) (A) (A) (A) (A) (A) (A) (A) (A) (A) (A) (A)
                 (A) (A) (A) (A) (A) (A) (A) (A) (A) (A) (A) (A)
                 (A) (A) (A) (A) (A) (A) (A) (A) (A) (A) (A) (A)
                 (A) (A) (A) (A) (A) (A) (A) (A) (A) (A) (A) (A)
                 (A) (A) (A) (A) (A) (A) (A) (A) (A) (A) (A) (A)
                 (A) (A) (A) (A) (A) (A) (A) (A) (A) (A) (A) (A)
                 (A) (A) (A) (A) (A) (A) (A) (A) (A) (A) (A) (A)
                 (A) (A) (A) (A) (A) (A) (A) (A) (A) (A) (A) (A)
                 (A) (A) (A) (A) (A) (A) (A) (A) (A) (A) (A) (A)
                 (A) (A) (A) (A) (A) (A) (A) (A) (A) (A) (A) (A)
                 (A) (A) (A) (A) (A) (A) (A) (A) (A) (A) (A) (A)
                 (A) (A) (A) (A) (A) (A) (A) (A) (A) (A) (A) (A)
                 (A) (A) (A) (A) (A) (A) (A) (A) (A) (A) (A) (A)
                 (A) (A) (A) (A) (A) (A) (A) (A) (A) (A) (A) (A)
                 (A) (A) (A) (A) (A) (A) (A) (A) (A) (A) (A) (A)
                 (A) (A) (A) (A) (A) (A) (A) (A) (A) (A) (A) (A)
                 (A) (A) (A) (A) (A) (A) (A) (A) (A) (A) (A) (A)
                 (A) (A) (A) (A) (A) (A) (A) (A) (A) (A) (A) (A)
                 (A) (A) (A) (A) (A) (A) (A) (A) (A) (A) (A) (A)
                 (A) (A) (A) (A) (A) (A) (A) (A) (A) (A) (A) (A)
                 (A) (A) (A) (A) (A) (A) (A) (A) (A) (A) (A) (A)
                 (A) (A) (A) (A) (A) (A) (A) (A) (A) (A) (A) (A)
                 (A) (A) (A) (A) (A) (A) (A) (A) (A) (A) (A) (A)
                 (A) (A) (A) (A) (A) (A) (A) (A) (A) (A) (A) (A)
                 (A) (A) (A) (A) (A) (A) (A) (A) (A) (A) (A) (A)
                 (A) (A) (A) (A) (A) (A) (A) (A) (A) (A) (A) (A)
                 (A) (A) (A) (A) (A) (A) (A) (A) (A) (A) (A) (A)
                 (A) (A) (A) (A) (A) (A) (A) (A) (A) (A) (A) (A)
                 (A) (A) (A) (A) (A) (A) (A) (A) (A) (A) (A) (A)
                 (A) (A) (A) (A) (A) (A) (A) (A) (A) (A) (A) (A)
                 (A) (A) (A) (A) (A) (A) (A) (A) (A) (A) (A) (A)
                 (A) (A) (A) (A) (A) (A) (A) (A) (A) (A) (A) (A)
                 (A) (A) (A) (A) (A) (A) (A) (A) (A) (A) (A) (A)
                 (A) (A) (A) (A) (A) (A) (A) (A) (A) (A) (A) (A)
                 (A) (A) (A) (A) (A) (A) (A) (A) (A) (A) (A) (A)
                 (A) (A) (A) (A) (A) (A) (A) (A) (A) (A) (A) (A)
                 (A) (A) (A) (A) (A) (A) (A) (A) (A) (A) (A) (A)
                 (A) (A) (A) (A) (A) (A) (A) (A) (A) (A) (A) (A)
                 (A) (A) (A) (A) (A) (A) (A) (A) (A) (A) (A) (A)
                 (A) (A) (A) (A) (A) (A) (A) (A) (A) (A) (A) (A)
                 (A) (A) (A) (A) (A) (A) (A) (A) (A) (A) (A) (A)
                 (A) (A) (A) (A) (A) (A) (A) (A) (A) (A) (A) (A)
                 (A) (A) (A) (A) (A) (A) (A) (A) (A) (A) (A) (A)
                 (A) (A) (A) (A) (A) (A) (A) (A) (A) (A) (A) (A)
                 (A) (A) (A) (A) (A) (A) (A) (A) (A) (A) (A) (A)
                 (A) (A) (A) (A) (A) (A) (A) (A) (A) (A) (A) (A)
                 (A) (A) (A) (A) (A) (A) (A) (A) (A) (A) (A) (A)
                 (A) (A) (A) (A) (A) (A) (A) (A) (A) (A) (A) (A)
                 (A) (A) (A) (A) (A) (A) (A) (A) (A) (A) (A) (A)
                 (A) (A) (A) (A) (A) (A) (A) (A) (A) (A) (A) (A)
                 (A) (A) (A) (A) (A) (A) (A) (A) (A) (A) (A) (A)
                 (A) (A) (A) (A) (A) (A) (A) (A) (A) (A) (A) (A)
                 (A) (A) (A) (A) (A) (A) (A) (A) (A) (A) (A) (A)
                 (A) (A) (A) (A) (A) (A) (A) (A) (A) (A) (A) (A)
                 (A) (A) (A) (A) (A) (A) (A) (A) (A) (A) (A) (A)
                 (A) (A) (A) (A) (A) (A) (A) (A) (A) (A) (A) (A)
                 (A) (A) (A) (A) (A) (A) (A) (A) (A) (A) (A) (A)
                 (A) (A) (A) (A) (A) (A) (A) (A) (A) (A) (A) (A)
                 (A) (A) (A) (A) (A) (A) (A) (A) (A) (A) (A) (A)
                 (A) (A) (A) (A) (A) (A) (A) (A) (A) (A) (A) (A)
                 (A) (A) (A) (A) (A) (A) (A) (A) (A) (A) (A) (A)
                 (A) (A) (A) (A) (A) (A) (A) (A) (A) (A) (A) (A)
                 (A) (A) (A) (A) (A) (A) (A) (A) (A) (A) (A) (A)
                 (A) (A) (A) (A) (A) (A) (A) (A) (A) (A) (A) (A)
                 (A) (A) (A) (A) (A) (A) (A) (A) (A) (A) (A) (A)
                 (A) (A) (A) (A) (A) (A) (A) (A) (A) (A) (A) (A)
                 (A) (A) (A) (A) (A) (A) (A) (A) (A) (A) (A) (A)
                 (A) (A) (A) (A) (A) (A) (A) (A) (A) (A) (A) (A)
                 (A) (A) (A) (A) (A) (A) (A) (A) (A) (A) (A) (A)
                 (A) (A) (A) (A) (A) (A) (A) (A) (A) (A) (A) (A)
                 (A) (A) (A) (A) (A) (A) (A) (A) (A) (A) (A) (A)
                 (A) (A) (A) (A) (A) (A) (A) (A) (A) (A) (A) (A)
                 (A) (A) (A) (A) (A) (A) (A) (A) (A) (A) (A) (A)
                 (A) (A) (A) (A) (A) (A) (A) (A) (A) (A) (A) (A)
                 (A) (A) (A) (A) (A) (A) (A) (A) (A) (A) (A) (A)
                 (A) (A) (A) (A) (A) (A) (A) (A) (A) (A) (A) (A)
                 (A) (A) (A) (A) (A) (A) (A) (A) (A) (A) (A) (A)
                 (A) (A) (A) (A) (A) (A) (A) (A) (A) (A) (A) (A)
                 (A) (A) (A) (A) (A) (A) (A) (A) (A) (A) (A) (A)
                 (A) (A) (A) (A) (A) (A) (A) (A) (A) (A) (A) (A)
                 (A) (A) (A) (A) (A) (A) (A) (A) (A) (A) (A) (A)
                 (A) (A) (A) (A) (A) (A) (A) (A) (A) (A) (A) (A)
                 (A) (A) (A) (A) (A) (A) (A) (A) (A) (A) (A) (A)
                 (A) (A) (A) (A) (A) (A) (A) (A) (A) (A) (A) (A)
                 (A) (A) (A) (A) (A) (A) (A) (A) (A) (A) (A) (A)
                 (A) (A) (A) (A) (A) (A) (A) (A) (A) (A) (A) (A)
                 (A) (A) (A) (A) (A) (A) (A) (A) (A) (A) (A) (A)
                 (A) (A) (A) (A) (A) (A) (A) (A) (A) (A) (A) (A)
                 (A) (A) (A) (A) (A) (A) (A) (A) (A) (A) (A) (A)
                 (A) (A) (A) (A) (A) (A) (A) (A) (A) (A) (A) (A)
                 (A) (A) (A) (A) (A) (A) (A) (A) (A) (A) (A) (A)
                 (A) (A) (A) (A) (A) (A) (A) (A) (A) (A) (A) (A)
                 (A) (A) (A) (A) (A) (A) (A) (A) (A) (A) (A) (A)
                 (A) (A) (A) (A) (A) (A) (A) (A) (A) (A) (A) (A)
                 (A) (A) (A) (A) (A) (A) (A) (A) (A) (A) (A) (A)
                 (A) (A) (A) (A) (A) (A) (A) (A) (A) (A) (A) (A)
                 (A) (A) (A) (A) (A) (A) (A) (A) (A) (A) (A) (A)
                 (A) (A) (A) (A) (A) (A) (A) (A) (A) (A) (A) (A)
                 (A) (A) (A) (A) (A) (A) (A) (A) (A) (A) (A) (A)
                 (A) (A) (A) (A) (A) (A) (A) (A) (A) (A) (A) (A)
                 (A) (A) (A) (A) (A) (A) (A) (A) (A) (A) (A) (A)
                 (A) (A) (A) (A) (A) (A) (A) (A) (A) (A) (A) (A)
                 (A) (A) (A) (A) (A) (A) (A) (A) (A) (A) (A) (A)
                 (A) (A) (A) (A) (A) (A) (A) (A) (A) (A) (A) (A)
                 (A) (A) (A) (A) (A) (A) (A) (A) (A) (A) (A) (A)
                 (A) (A) (A) (A) (A) (A) (A) (A) (A) (A) (A) (A)
                 (A) (A) (A) (A) (A) (A) (A) (A) (A) (A) (A) (A)
                 (A) (A) (A) (A) (A) (A) (A) (A) (A) (A) (A) (A)
                 (A) (A) (A) (A) (A) (A) (A) (A) (A) (A) (A) (A)
                 (A) (A) (A) (A) (A) (A) (A) (A) (A) (A) (A) (A)
                 (A) (A) (A) (A) (A) (A) (A) (A) (A) (A) (A) (A)
                 (A) (A) (A) (A) (A) (A) (A) (A) (A) (A) (A) (A)
                 (A) (A) (A) (A) (A) (A) (A) (A) (A) (A) (A) (A)
                 (A) (A) (A) (A) (A) (A) (A) (A) (A) (A) (A) (A)
                 (A) (A) (A) (A) (A) (A) (A) (A) (A) (A) (A) (A)
                 (A) (A) (A) (A) (A) (A) (A) (A) (A) (A) (A) (A)
                 (A) (A) (A) (A) (A) (A) (A) (A) (A) (A) (A) (A)
                 (A) (A) (A) (A) (A) (A) (A) (A) (A) (A) (A) (A)
                 (A) (A) (A) (A) (A) (A) (A) (A) (A) (A) (A) (A)
                 (A) (A) (A) (A) (A) (A) (A) (A) (A) (A) (A) (A)
                 (A) (A) (A) (A) (A) (A) (A) (A) (A) (A) (A) (A)
                 (A) (A) (A) (A) (A) (A) (A) (A) (A) (A) (A) (A)
                 (A) (A) (A) (A) (A) (A) (A) (A) (A) (A) (A) (A)
                 (A) (A) (A) (A) (A) (A) (A) (A) (A) (A) (A) (A)
                 (A) (A) (A)
 Beta  Orbitals:
       Occupied  (A) (A) (A) (A) (A) (A) (A) (A) (A) (A) (A) (A)
                 (A) (A) (A) (A) (A) (A) (A) (A) (A) (A) (A) (A)
                 (A) (A) (A) (A) (A) (A) (A) (A) (A) (A) (A) (A)
                 (A) (A) (A) (A) (A) (A) (A) (A) (A) (A) (A) (A)
                 (A) (A) (A) (A) (A) (A) (A) (A) (A) (A) (A) (A)
                 (A) (A) (A) (A) (A) (A) (A) (A) (A) (A) (A) (A)
                 (A) (A) (A) (A) (A) (A) (A) (A) (A) (A) (A) (A)
                 (A) (A) (A) (A) (A) (A) (A) (A) (A) (A) (A) (A)
                 (A) (A) (A) (A) (A) (A) (A) (A) (A) (A) (A) (A)
                 (A) (A) (A) (A) (A) (A) (A) (A) (A) (A) (A) (A)
                 (A) (A) (A) (A) (A) (A) (A) (A) (A) (A) (A) (A)
                 (A) (A) (A) (A) (A) (A) (A) (A) (A) (A) (A) (A)
                 (A) (A) (A) (A) (A) (A) (A) (A) (A) (A) (A) (A)
                 (A) (A) (A) (A) (A) (A) (A) (A) (A) (A) (A) (A)
                 (A) (A) (A) (A) (A) (A) (A) (A) (A) (A) (A) (A)
                 (A) (A) (A) (A) (A) (A) (A) (A) (A) (A) (A) (A)
                 (A) (A) (A) (A) (A) (A) (A) (A) (A) (A) (A)
       Virtual   (A) (A) (A) (A) (A) (A) (A) (A) (A) (A) (A) (A)
                 (A) (A) (A) (A) (A) (A) (A) (A) (A) (A) (A) (A)
                 (A) (A) (A) (A) (A) (A) (A) (A) (A) (A) (A) (A)
                 (A) (A) (A) (A) (A) (A) (A) (A) (A) (A) (A) (A)
                 (A) (A) (A) (A) (A) (A) (A) (A) (A) (A) (A) (A)
                 (A) (A) (A) (A) (A) (A) (A) (A) (A) (A) (A) (A)
                 (A) (A) (A) (A) (A) (A) (A) (A) (A) (A) (A) (A)
                 (A) (A) (A) (A) (A) (A) (A) (A) (A) (A) (A) (A)
                 (A) (A) (A) (A) (A) (A) (A) (A) (A) (A) (A) (A)
                 (A) (A) (A) (A) (A) (A) (A) (A) (A) (A) (A) (A)
                 (A) (A) (A) (A) (A) (A) (A) (A) (A) (A) (A) (A)
                 (A) (A) (A) (A) (A) (A) (A) (A) (A) (A) (A) (A)
                 (A) (A) (A) (A) (A) (A) (A) (A) (A) (A) (A) (A)
                 (A) (A) (A) (A) (A) (A) (A) (A) (A) (A) (A) (A)
                 (A) (A) (A) (A) (A) (A) (A) (A) (A) (A) (A) (A)
                 (A) (A) (A) (A) (A) (A) (A) (A) (A) (A) (A) (A)
                 (A) (A) (A) (A) (A) (A) (A) (A) (A) (A) (A) (A)
                 (A) (A) (A) (A) (A) (A) (A) (A) (A) (A) (A) (A)
                 (A) (A) (A) (A) (A) (A) (A) (A) (A) (A) (A) (A)
                 (A) (A) (A) (A) (A) (A) (A) (A) (A) (A) (A) (A)
                 (A) (A) (A) (A) (A) (A) (A) (A) (A) (A) (A) (A)
                 (A) (A) (A) (A) (A) (A) (A) (A) (A) (A) (A) (A)
                 (A) (A) (A) (A) (A) (A) (A) (A) (A) (A) (A) (A)
                 (A) (A) (A) (A) (A) (A) (A) (A) (A) (A) (A) (A)
                 (A) (A) (A) (A) (A) (A) (A) (A) (A) (A) (A) (A)
                 (A) (A) (A) (A) (A) (A) (A) (A) (A) (A) (A) (A)
                 (A) (A) (A) (A) (A) (A) (A) (A) (A) (A) (A) (A)
                 (A) (A) (A) (A) (A) (A) (A) (A) (A) (A) (A) (A)
                 (A) (A) (A) (A) (A) (A) (A) (A) (A) (A) (A) (A)
                 (A) (A) (A) (A) (A) (A) (A) (A) (A) (A) (A) (A)
                 (A) (A) (A) (A) (A) (A) (A) (A) (A) (A) (A) (A)
                 (A) (A) (A) (A) (A) (A) (A) (A) (A) (A) (A) (A)
                 (A) (A) (A) (A) (A) (A) (A) (A) (A) (A) (A) (A)
                 (A) (A) (A) (A) (A) (A) (A) (A) (A) (A) (A) (A)
                 (A) (A) (A) (A) (A) (A) (A) (A) (A) (A) (A) (A)
                 (A) (A) (A) (A) (A) (A) (A) (A) (A) (A) (A) (A)
                 (A) (A) (A) (A) (A) (A) (A) (A) (A) (A) (A) (A)
                 (A) (A) (A) (A) (A) (A) (A) (A) (A) (A) (A) (A)
                 (A) (A) (A) (A) (A) (A) (A) (A) (A) (A) (A) (A)
                 (A) (A) (A) (A) (A) (A) (A) (A) (A) (A) (A) (A)
                 (A) (A) (A) (A) (A) (A) (A) (A) (A) (A) (A) (A)
                 (A) (A) (A) (A) (A) (A) (A) (A) (A) (A) (A) (A)
                 (A) (A) (A) (A) (A) (A) (A) (A) (A) (A) (A) (A)
                 (A) (A) (A) (A) (A) (A) (A) (A) (A) (A) (A) (A)
                 (A) (A) (A) (A) (A) (A) (A) (A) (A) (A) (A) (A)
                 (A) (A) (A) (A) (A) (A) (A) (A) (A) (A) (A) (A)
                 (A) (A) (A) (A) (A) (A) (A) (A) (A) (A) (A) (A)
                 (A) (A) (A) (A) (A) (A) (A) (A) (A) (A) (A) (A)
                 (A) (A) (A) (A) (A) (A) (A) (A) (A) (A) (A) (A)
                 (A) (A) (A) (A) (A) (A) (A) (A) (A) (A) (A) (A)
                 (A) (A) (A) (A) (A) (A) (A) (A) (A) (A) (A) (A)
                 (A) (A) (A) (A) (A) (A) (A) (A) (A) (A) (A) (A)
                 (A) (A) (A) (A) (A) (A) (A) (A) (A) (A) (A) (A)
                 (A) (A) (A) (A) (A) (A) (A) (A) (A) (A) (A) (A)
                 (A) (A) (A) (A) (A) (A) (A) (A) (A) (A) (A) (A)
                 (A) (A) (A) (A) (A) (A) (A) (A) (A) (A) (A) (A)
                 (A) (A) (A) (A) (A) (A) (A) (A) (A) (A) (A) (A)
                 (A) (A) (A) (A) (A) (A) (A) (A) (A) (A) (A) (A)
                 (A) (A) (A) (A) (A) (A) (A) (A) (A) (A) (A) (A)
                 (A) (A) (A) (A) (A) (A) (A) (A) (A) (A) (A) (A)
                 (A) (A) (A) (A) (A) (A) (A) (A) (A) (A) (A) (A)
                 (A) (A) (A) (A) (A) (A) (A) (A) (A) (A) (A) (A)
                 (A) (A) (A) (A) (A) (A) (A) (A) (A) (A) (A) (A)
                 (A) (A) (A) (A) (A) (A) (A) (A) (A) (A) (A) (A)
                 (A) (A) (A) (A) (A) (A) (A) (A) (A) (A) (A) (A)
                 (A) (A) (A) (A) (A) (A) (A) (A) (A) (A) (A) (A)
                 (A) (A) (A) (A) (A) (A) (A) (A) (A) (A) (A) (A)
                 (A) (A) (A) (A) (A) (A) (A) (A) (A) (A) (A) (A)
                 (A) (A) (A) (A) (A) (A) (A) (A) (A) (A) (A) (A)
                 (A) (A) (A) (A) (A) (A) (A) (A) (A) (A) (A) (A)
                 (A) (A) (A) (A) (A) (A) (A) (A) (A) (A) (A) (A)
                 (A) (A) (A) (A) (A) (A) (A) (A) (A) (A) (A) (A)
                 (A) (A) (A) (A) (A) (A) (A) (A) (A) (A) (A) (A)
                 (A) (A) (A) (A) (A) (A) (A) (A) (A) (A) (A) (A)
                 (A) (A) (A) (A) (A) (A) (A) (A) (A) (A) (A) (A)
                 (A) (A) (A) (A) (A) (A) (A) (A) (A) (A) (A) (A)
                 (A) (A) (A) (A) (A) (A) (A) (A) (A) (A) (A) (A)
                 (A) (A) (A) (A) (A) (A) (A) (A) (A) (A) (A) (A)
                 (A) (A) (A) (A) (A) (A) (A) (A) (A) (A) (A) (A)
                 (A) (A) (A) (A) (A) (A) (A) (A) (A) (A) (A) (A)
                 (A) (A) (A) (A) (A) (A) (A) (A) (A) (A) (A) (A)
                 (A) (A) (A) (A) (A) (A) (A) (A) (A) (A) (A) (A)
                 (A) (A) (A) (A) (A) (A) (A) (A) (A) (A) (A) (A)
                 (A) (A) (A) (A) (A) (A) (A) (A) (A) (A) (A) (A)
                 (A) (A) (A) (A) (A) (A) (A) (A) (A) (A) (A) (A)
                 (A) (A) (A) (A) (A) (A) (A) (A) (A) (A) (A) (A)
                 (A) (A) (A) (A) (A) (A) (A) (A) (A) (A) (A) (A)
                 (A) (A) (A) (A) (A) (A) (A) (A) (A) (A) (A) (A)
                 (A) (A) (A) (A) (A) (A) (A) (A) (A) (A) (A) (A)
                 (A) (A) (A) (A) (A) (A) (A) (A) (A) (A) (A) (A)
                 (A) (A) (A) (A) (A) (A) (A) (A) (A) (A) (A) (A)
                 (A) (A) (A) (A) (A) (A) (A) (A) (A) (A) (A) (A)
                 (A) (A) (A) (A) (A) (A) (A) (A) (A) (A) (A) (A)
                 (A) (A) (A) (A) (A) (A) (A) (A) (A) (A) (A) (A)
                 (A) (A) (A) (A) (A) (A) (A) (A) (A) (A) (A) (A)
                 (A) (A) (A) (A) (A) (A) (A) (A) (A) (A) (A) (A)
                 (A) (A) (A) (A) (A) (A) (A) (A) (A) (A) (A) (A)
                 (A) (A) (A) (A) (A) (A) (A) (A) (A) (A) (A) (A)
                 (A) (A) (A) (A) (A) (A) (A) (A) (A) (A) (A) (A)
                 (A) (A) (A) (A) (A) (A) (A) (A) (A) (A) (A) (A)
                 (A) (A) (A) (A) (A) (A) (A) (A) (A) (A) (A) (A)
                 (A) (A) (A) (A) (A) (A) (A) (A) (A) (A) (A) (A)
                 (A) (A) (A) (A) (A) (A) (A) (A) (A) (A) (A) (A)
                 (A) (A) (A) (A) (A) (A) (A) (A) (A) (A) (A) (A)
                 (A) (A) (A) (A) (A) (A) (A) (A) (A) (A) (A) (A)
                 (A) (A) (A) (A) (A) (A) (A) (A) (A) (A) (A) (A)
                 (A) (A) (A) (A) (A) (A) (A) (A) (A) (A) (A) (A)
                 (A) (A) (A) (A) (A) (A) (A) (A) (A) (A) (A) (A)
                 (A) (A) (A) (A) (A) (A) (A) (A) (A) (A) (A) (A)
                 (A) (A) (A) (A) (A) (A) (A) (A) (A) (A) (A) (A)
                 (A) (A) (A) (A) (A) (A) (A) (A) (A) (A) (A) (A)
                 (A) (A) (A) (A) (A) (A) (A) (A) (A) (A) (A) (A)
                 (A) (A) (A) (A) (A) (A) (A) (A) (A) (A) (A) (A)
                 (A) (A) (A) (A) (A) (A) (A) (A) (A) (A) (A) (A)
                 (A) (A) (A) (A) (A) (A) (A) (A) (A) (A) (A) (A)
                 (A) (A) (A) (A) (A) (A) (A) (A) (A) (A) (A) (A)
                 (A) (A) (A) (A) (A) (A) (A) (A) (A) (A) (A) (A)
                 (A) (A) (A) (A) (A) (A) (A) (A) (A) (A) (A) (A)
                 (A) (A) (A) (A) (A) (A) (A) (A) (A) (A) (A) (A)
                 (A) (A) (A) (A) (A) (A) (A) (A) (A) (A) (A) (A)
                 (A) (A) (A) (A) (A) (A) (A) (A) (A) (A) (A) (A)
                 (A) (A) (A) (A) (A) (A) (A) (A) (A) (A) (A) (A)
                 (A) (A) (A) (A) (A) (A) (A) (A) (A) (A) (A) (A)
                 (A) (A) (A) (A) (A) (A) (A) (A) (A) (A) (A) (A)
                 (A) (A) (A) (A) (A) (A) (A) (A) (A) (A) (A) (A)
                 (A) (A) (A) (A) (A) (A) (A) (A) (A) (A) (A) (A)
                 (A) (A) (A) (A) (A) (A) (A) (A) (A) (A) (A) (A)
                 (A) (A) (A) (A) (A) (A) (A) (A) (A) (A) (A) (A)
                 (A) (A) (A) (A) (A) (A) (A) (A) (A) (A) (A) (A)
                 (A) (A) (A) (A) (A) (A) (A) (A) (A) (A) (A) (A)
                 (A) (A) (A) (A) (A) (A) (A) (A) (A) (A) (A) (A)
                 (A) (A) (A) (A) (A) (A) (A) (A) (A) (A) (A) (A)
                 (A) (A) (A) (A) (A) (A) (A) (A) (A) (A) (A) (A)
                 (A) (A) (A) (A) (A) (A) (A) (A) (A) (A) (A) (A)
                 (A) (A) (A) (A) (A) (A) (A) (A) (A) (A) (A) (A)
                 (A) (A) (A) (A) (A) (A) (A) (A) (A) (A) (A) (A)
                 (A) (A) (A) (A) (A) (A) (A) (A) (A) (A) (A) (A)
                 (A) (A) (A) (A) (A) (A) (A) (A) (A) (A) (A) (A)
                 (A) (A) (A) (A) (A) (A) (A) (A) (A) (A) (A) (A)
                 (A) (A) (A) (A) (A) (A) (A) (A) (A) (A) (A) (A)
                 (A) (A) (A) (A) (A) (A) (A) (A) (A) (A) (A) (A)
                 (A) (A) (A) (A) (A) (A) (A) (A) (A) (A) (A) (A)
                 (A) (A) (A) (A) (A) (A) (A) (A) (A) (A) (A) (A)
                 (A) (A) (A) (A) (A) (A) (A) (A) (A) (A) (A) (A)
                 (A) (A) (A) (A) (A) (A) (A) (A) (A) (A) (A) (A)
                 (A) (A) (A) (A) (A) (A) (A) (A) (A) (A) (A) (A)
                 (A) (A) (A) (A) (A) (A) (A) (A)
 The electronic state is 6-A.
 Alpha  occ. eigenvalues -- -256.53163 -89.12168 -30.36066 -26.17697 -26.17696
 Alpha  occ. eigenvalues --  -26.17648 -19.32244 -19.32063 -19.25846 -19.24880
 Alpha  occ. eigenvalues --  -14.53421 -14.49526 -14.47646 -14.47217 -14.47046
 Alpha  occ. eigenvalues --  -14.46734 -10.42621 -10.41662 -10.37341 -10.35992
 Alpha  occ. eigenvalues --  -10.35147 -10.35063 -10.34815 -10.34597 -10.34557
 Alpha  occ. eigenvalues --  -10.34511 -10.34471 -10.34313 -10.32511 -10.32389
 Alpha  occ. eigenvalues --  -10.32056 -10.31779 -10.31608 -10.31510 -10.31495
 Alpha  occ. eigenvalues --  -10.31206 -10.31123 -10.31044 -10.30924 -10.30567
 Alpha  occ. eigenvalues --  -10.30519 -10.30380 -10.30115 -10.29956 -10.29897
 Alpha  occ. eigenvalues --  -10.29887 -10.29318 -10.28839 -10.28828 -10.28220
 Alpha  occ. eigenvalues --  -10.28160 -10.28031 -10.27437 -10.26798 -10.26260
 Alpha  occ. eigenvalues --  -10.25924 -10.24601  -8.10227  -6.03824  -6.03571
 Alpha  occ. eigenvalues --   -6.03126  -3.78840  -2.55025  -2.54963  -2.54795
 Alpha  occ. eigenvalues --   -1.25807  -1.23041  -1.17777  -1.10215  -1.09860
 Alpha  occ. eigenvalues --   -1.08989  -1.07889  -1.07376  -1.06523  -1.03655
 Alpha  occ. eigenvalues --   -0.95099  -0.94657  -0.94257  -0.93327  -0.92791
 Alpha  occ. eigenvalues --   -0.92471  -0.92206  -0.91597  -0.91445  -0.90239
 Alpha  occ. eigenvalues --   -0.89522  -0.88136  -0.87419  -0.86594  -0.86378
 Alpha  occ. eigenvalues --   -0.85208  -0.84012  -0.83185  -0.82915  -0.82422
 Alpha  occ. eigenvalues --   -0.80895  -0.80086  -0.79793  -0.78619  -0.78273
 Alpha  occ. eigenvalues --   -0.76284  -0.76063  -0.74598  -0.74363  -0.73649
 Alpha  occ. eigenvalues --   -0.73003  -0.72851  -0.72334  -0.70228  -0.69351
 Alpha  occ. eigenvalues --   -0.68672  -0.66751  -0.65818  -0.65539  -0.64868
 Alpha  occ. eigenvalues --   -0.63580  -0.62889  -0.62707  -0.62251  -0.61859
 Alpha  occ. eigenvalues --   -0.60513  -0.60477  -0.60062  -0.59945  -0.59137
 Alpha  occ. eigenvalues --   -0.58975  -0.58873  -0.58500  -0.58017  -0.57908
 Alpha  occ. eigenvalues --   -0.57578  -0.57266  -0.57203  -0.56815  -0.56482
 Alpha  occ. eigenvalues --   -0.56157  -0.55942  -0.55841  -0.55736  -0.55557
 Alpha  occ. eigenvalues --   -0.55280  -0.54970  -0.54899  -0.54829  -0.54647
 Alpha  occ. eigenvalues --   -0.54222  -0.53926  -0.53729  -0.53566  -0.53321
 Alpha  occ. eigenvalues --   -0.52958  -0.52471  -0.52420  -0.52255  -0.52118
 Alpha  occ. eigenvalues --   -0.51845  -0.51353  -0.51295  -0.51088  -0.50905
 Alpha  occ. eigenvalues --   -0.50710  -0.50624  -0.50112  -0.49873  -0.49748
 Alpha  occ. eigenvalues --   -0.49528  -0.49516  -0.49211  -0.49089  -0.48539
 Alpha  occ. eigenvalues --   -0.48098  -0.47834  -0.47536  -0.47343  -0.46967
 Alpha  occ. eigenvalues --   -0.46685  -0.46082  -0.45962  -0.45776  -0.45437
 Alpha  occ. eigenvalues --   -0.45400  -0.44652  -0.44394  -0.44333  -0.44109
 Alpha  occ. eigenvalues --   -0.43508  -0.43193  -0.42817  -0.42675  -0.42509
 Alpha  occ. eigenvalues --   -0.42296  -0.41125  -0.40940  -0.39826  -0.38779
 Alpha  occ. eigenvalues --   -0.37967  -0.37842  -0.35814  -0.35415  -0.35166
 Alpha  occ. eigenvalues --   -0.34610  -0.33994  -0.33664  -0.33161  -0.31993
 Alpha  occ. eigenvalues --   -0.31821  -0.29374  -0.28734
 Alpha virt. eigenvalues --   -0.17324  -0.17016  -0.10839  -0.09554  -0.08668
 Alpha virt. eigenvalues --   -0.06545  -0.06208  -0.06035  -0.05071  -0.04829
 Alpha virt. eigenvalues --   -0.04473  -0.04391  -0.03492  -0.02921  -0.02775
 Alpha virt. eigenvalues --   -0.02247  -0.02192  -0.01998  -0.01534  -0.01113
 Alpha virt. eigenvalues --   -0.01013  -0.00200   0.00103   0.00160   0.00425
 Alpha virt. eigenvalues --    0.00637   0.00701   0.01084   0.01312   0.01536
 Alpha virt. eigenvalues --    0.01909   0.02121   0.02403   0.02691   0.03044
 Alpha virt. eigenvalues --    0.03157   0.03483   0.03599   0.03730   0.03856
 Alpha virt. eigenvalues --    0.04152   0.04461   0.04696   0.04856   0.04973
 Alpha virt. eigenvalues --    0.05105   0.05385   0.05444   0.05839   0.05868
 Alpha virt. eigenvalues --    0.06147   0.06394   0.06452   0.06682   0.06754
 Alpha virt. eigenvalues --    0.06901   0.07085   0.07278   0.07392   0.07772
 Alpha virt. eigenvalues --    0.07984   0.08088   0.08312   0.08565   0.08872
 Alpha virt. eigenvalues --    0.08946   0.09122   0.09221   0.09397   0.09519
 Alpha virt. eigenvalues --    0.09894   0.10005   0.10194   0.10321   0.10474
 Alpha virt. eigenvalues --    0.10626   0.10827   0.11051   0.11251   0.11496
 Alpha virt. eigenvalues --    0.11691   0.11816   0.12117   0.12275   0.12460
 Alpha virt. eigenvalues --    0.12660   0.12755   0.12853   0.13090   0.13285
 Alpha virt. eigenvalues --    0.13725   0.13766   0.13951   0.14005   0.14360
 Alpha virt. eigenvalues --    0.14714   0.14830   0.15035   0.15313   0.15543
 Alpha virt. eigenvalues --    0.15719   0.15765   0.16097   0.16395   0.16456
 Alpha virt. eigenvalues --    0.16872   0.17126   0.17149   0.17363   0.17547
 Alpha virt. eigenvalues --    0.17968   0.18112   0.18308   0.18429   0.18556
 Alpha virt. eigenvalues --    0.18828   0.19016   0.19048   0.19444   0.19682
 Alpha virt. eigenvalues --    0.20118   0.20163   0.20513   0.20654   0.20671
 Alpha virt. eigenvalues --    0.20802   0.21254   0.21401   0.21592   0.21748
 Alpha virt. eigenvalues --    0.22056   0.22321   0.22431   0.22818   0.22914
 Alpha virt. eigenvalues --    0.23293   0.23500   0.23625   0.24059   0.24192
 Alpha virt. eigenvalues --    0.24615   0.24815   0.25072   0.25307   0.25518
 Alpha virt. eigenvalues --    0.25562   0.25728   0.26009   0.26559   0.26796
 Alpha virt. eigenvalues --    0.26908   0.27001   0.27293   0.27481   0.27780
 Alpha virt. eigenvalues --    0.27897   0.28167   0.28540   0.28769   0.29105
 Alpha virt. eigenvalues --    0.29335   0.29466   0.29649   0.29994   0.30168
 Alpha virt. eigenvalues --    0.30357   0.30589   0.30753   0.30965   0.31185
 Alpha virt. eigenvalues --    0.31338   0.31656   0.31757   0.31782   0.31953
 Alpha virt. eigenvalues --    0.32227   0.32572   0.32602   0.32919   0.33038
 Alpha virt. eigenvalues --    0.33428   0.33508   0.33910   0.34096   0.34224
 Alpha virt. eigenvalues --    0.34440   0.34629   0.34650   0.34755   0.34858
 Alpha virt. eigenvalues --    0.35136   0.35195   0.35519   0.35717   0.35843
 Alpha virt. eigenvalues --    0.36085   0.36179   0.36309   0.36476   0.36711
 Alpha virt. eigenvalues --    0.36880   0.36929   0.37006   0.37295   0.37522
 Alpha virt. eigenvalues --    0.37830   0.37927   0.38114   0.38213   0.38345
 Alpha virt. eigenvalues --    0.38492   0.38818   0.38933   0.39039   0.39127
 Alpha virt. eigenvalues --    0.39203   0.39476   0.39803   0.39828   0.40094
 Alpha virt. eigenvalues --    0.40246   0.40469   0.40513   0.40669   0.40848
 Alpha virt. eigenvalues --    0.41196   0.41227   0.41453   0.41587   0.41800
 Alpha virt. eigenvalues --    0.42028   0.42198   0.42380   0.42482   0.42606
 Alpha virt. eigenvalues --    0.42887   0.42954   0.43158   0.43240   0.43433
 Alpha virt. eigenvalues --    0.43802   0.44044   0.44373   0.44408   0.44625
 Alpha virt. eigenvalues --    0.44737   0.44915   0.45004   0.45274   0.45623
 Alpha virt. eigenvalues --    0.45763   0.46029   0.46090   0.46225   0.46390
 Alpha virt. eigenvalues --    0.46718   0.46832   0.46944   0.47019   0.47396
 Alpha virt. eigenvalues --    0.47553   0.47874   0.48129   0.48334   0.48525
 Alpha virt. eigenvalues --    0.48709   0.48786   0.49249   0.49492   0.49539
 Alpha virt. eigenvalues --    0.49788   0.49935   0.49977   0.50361   0.50722
 Alpha virt. eigenvalues --    0.50833   0.51057   0.51213   0.51318   0.51380
 Alpha virt. eigenvalues --    0.51717   0.51915   0.52225   0.52453   0.52578
 Alpha virt. eigenvalues --    0.52991   0.53188   0.53577   0.53731   0.53827
 Alpha virt. eigenvalues --    0.54142   0.54253   0.54384   0.54564   0.54835
 Alpha virt. eigenvalues --    0.55177   0.55359   0.55385   0.55722   0.56020
 Alpha virt. eigenvalues --    0.56325   0.56815   0.56935   0.57265   0.57447
 Alpha virt. eigenvalues --    0.57619   0.57939   0.58050   0.58446   0.58569
 Alpha virt. eigenvalues --    0.58749   0.58995   0.59199   0.59438   0.59990
 Alpha virt. eigenvalues --    0.60214   0.60440   0.60586   0.61184   0.61294
 Alpha virt. eigenvalues --    0.61417   0.61682   0.61884   0.62267   0.62497
 Alpha virt. eigenvalues --    0.62621   0.62991   0.63174   0.63655   0.63792
 Alpha virt. eigenvalues --    0.63925   0.64256   0.64711   0.65011   0.65133
 Alpha virt. eigenvalues --    0.65436   0.65702   0.65836   0.66099   0.66588
 Alpha virt. eigenvalues --    0.66890   0.67205   0.67521   0.67936   0.68005
 Alpha virt. eigenvalues --    0.68414   0.68634   0.68949   0.69109   0.69480
 Alpha virt. eigenvalues --    0.69838   0.69980   0.70336   0.70457   0.70694
 Alpha virt. eigenvalues --    0.71126   0.71382   0.71437   0.71993   0.72169
 Alpha virt. eigenvalues --    0.72342   0.72487   0.73029   0.73182   0.73476
 Alpha virt. eigenvalues --    0.73622   0.73869   0.74239   0.74558   0.74885
 Alpha virt. eigenvalues --    0.75334   0.75702   0.75842   0.76084   0.76246
 Alpha virt. eigenvalues --    0.76594   0.76815   0.77081   0.77414   0.77993
 Alpha virt. eigenvalues --    0.78156   0.78290   0.78603   0.79010   0.79197
 Alpha virt. eigenvalues --    0.79502   0.79788   0.80146   0.80273   0.80447
 Alpha virt. eigenvalues --    0.80764   0.81027   0.81362   0.81515   0.81789
 Alpha virt. eigenvalues --    0.81910   0.82043   0.82470   0.82661   0.82912
 Alpha virt. eigenvalues --    0.83100   0.83490   0.83918   0.84079   0.84357
 Alpha virt. eigenvalues --    0.84577   0.84709   0.84996   0.85297   0.85436
 Alpha virt. eigenvalues --    0.85885   0.86304   0.86429   0.86690   0.87206
 Alpha virt. eigenvalues --    0.87438   0.87921   0.88089   0.88463   0.88598
 Alpha virt. eigenvalues --    0.88812   0.89080   0.89261   0.89622   0.89963
 Alpha virt. eigenvalues --    0.90351   0.90620   0.90987   0.91089   0.91512
 Alpha virt. eigenvalues --    0.91691   0.91893   0.92156   0.92418   0.92558
 Alpha virt. eigenvalues --    0.92644   0.93082   0.93108   0.93294   0.93769
 Alpha virt. eigenvalues --    0.94152   0.94409   0.94634   0.95149   0.95318
 Alpha virt. eigenvalues --    0.95639   0.95753   0.96034   0.96378   0.96739
 Alpha virt. eigenvalues --    0.96909   0.96994   0.97119   0.97387   0.97605
 Alpha virt. eigenvalues --    0.98148   0.98402   0.98527   0.98716   0.99026
 Alpha virt. eigenvalues --    0.99130   0.99668   0.99997   1.00558   1.00770
 Alpha virt. eigenvalues --    1.00910   1.01297   1.01476   1.01730   1.02030
 Alpha virt. eigenvalues --    1.02170   1.02238   1.02730   1.02936   1.03595
 Alpha virt. eigenvalues --    1.03955   1.04325   1.04845   1.05013   1.05221
 Alpha virt. eigenvalues --    1.05478   1.05975   1.06225   1.06468   1.07150
 Alpha virt. eigenvalues --    1.07416   1.07777   1.07990   1.08158   1.08700
 Alpha virt. eigenvalues --    1.09044   1.09307   1.09699   1.10021   1.10264
 Alpha virt. eigenvalues --    1.10362   1.10970   1.11250   1.11505   1.11563
 Alpha virt. eigenvalues --    1.11965   1.12133   1.12194   1.13140   1.13211
 Alpha virt. eigenvalues --    1.13613   1.14035   1.14448   1.14546   1.15100
 Alpha virt. eigenvalues --    1.15309   1.15827   1.16331   1.16734   1.17093
 Alpha virt. eigenvalues --    1.17380   1.17698   1.17886   1.18160   1.18297
 Alpha virt. eigenvalues --    1.18635   1.18723   1.19287   1.19362   1.19619
 Alpha virt. eigenvalues --    1.20238   1.20454   1.21042   1.21317   1.21482
 Alpha virt. eigenvalues --    1.21773   1.22105   1.22533   1.22901   1.22987
 Alpha virt. eigenvalues --    1.23520   1.23813   1.24164   1.24456   1.24639
 Alpha virt. eigenvalues --    1.24899   1.25982   1.26088   1.26320   1.26756
 Alpha virt. eigenvalues --    1.27166   1.27648   1.27718   1.27824   1.28323
 Alpha virt. eigenvalues --    1.28424   1.29297   1.29614   1.29991   1.30632
 Alpha virt. eigenvalues --    1.31192   1.31423   1.31770   1.32511   1.32809
 Alpha virt. eigenvalues --    1.32907   1.33544   1.34421   1.34535   1.35145
 Alpha virt. eigenvalues --    1.35263   1.35525   1.36176   1.37028   1.37622
 Alpha virt. eigenvalues --    1.37921   1.38785   1.38969   1.39111   1.39435
 Alpha virt. eigenvalues --    1.39723   1.39979   1.40429   1.40734   1.40860
 Alpha virt. eigenvalues --    1.41234   1.41466   1.41764   1.41970   1.42442
 Alpha virt. eigenvalues --    1.42674   1.42812   1.43263   1.43719   1.43777
 Alpha virt. eigenvalues --    1.44042   1.44244   1.44637   1.45068   1.45417
 Alpha virt. eigenvalues --    1.45554   1.45611   1.46049   1.46091   1.46340
 Alpha virt. eigenvalues --    1.46582   1.46867   1.47132   1.47539   1.47741
 Alpha virt. eigenvalues --    1.48085   1.48293   1.48440   1.48521   1.48999
 Alpha virt. eigenvalues --    1.49157   1.49481   1.49521   1.49930   1.50103
 Alpha virt. eigenvalues --    1.50339   1.50645   1.50932   1.51297   1.51438
 Alpha virt. eigenvalues --    1.51957   1.52196   1.52395   1.52579   1.52905
 Alpha virt. eigenvalues --    1.52951   1.53289   1.53650   1.54021   1.54241
 Alpha virt. eigenvalues --    1.54364   1.54613   1.54735   1.55130   1.55282
 Alpha virt. eigenvalues --    1.55460   1.55841   1.55972   1.56474   1.56855
 Alpha virt. eigenvalues --    1.56921   1.57036   1.57660   1.57866   1.57911
 Alpha virt. eigenvalues --    1.58230   1.58334   1.58860   1.59125   1.59149
 Alpha virt. eigenvalues --    1.59389   1.59633   1.60098   1.60335   1.60490
 Alpha virt. eigenvalues --    1.60744   1.60886   1.61070   1.61219   1.61394
 Alpha virt. eigenvalues --    1.61830   1.62165   1.62270   1.62556   1.62778
 Alpha virt. eigenvalues --    1.63269   1.63554   1.63820   1.64137   1.64644
 Alpha virt. eigenvalues --    1.65053   1.65095   1.65179   1.65721   1.65975
 Alpha virt. eigenvalues --    1.66099   1.66167   1.66486   1.67185   1.67385
 Alpha virt. eigenvalues --    1.67639   1.67918   1.68439   1.68582   1.69117
 Alpha virt. eigenvalues --    1.69286   1.69585   1.69957   1.70004   1.70257
 Alpha virt. eigenvalues --    1.70506   1.70934   1.71240   1.71795   1.72433
 Alpha virt. eigenvalues --    1.72609   1.72852   1.73063   1.73694   1.74018
 Alpha virt. eigenvalues --    1.74192   1.74602   1.75091   1.75352   1.75909
 Alpha virt. eigenvalues --    1.76052   1.76492   1.76836   1.77372   1.77551
 Alpha virt. eigenvalues --    1.77662   1.78097   1.78255   1.78342   1.78544
 Alpha virt. eigenvalues --    1.79011   1.79514   1.79582   1.79853   1.80054
 Alpha virt. eigenvalues --    1.80184   1.81016   1.81394   1.81705   1.81912
 Alpha virt. eigenvalues --    1.82297   1.82829   1.83176   1.83711   1.84132
 Alpha virt. eigenvalues --    1.84456   1.85137   1.85396   1.85871   1.86126
 Alpha virt. eigenvalues --    1.86778   1.87062   1.87217   1.87350   1.87507
 Alpha virt. eigenvalues --    1.87880   1.88333   1.88623   1.89330   1.89605
 Alpha virt. eigenvalues --    1.89768   1.89831   1.90690   1.91161   1.91302
 Alpha virt. eigenvalues --    1.91537   1.91721   1.91965   1.92273   1.92510
 Alpha virt. eigenvalues --    1.93354   1.93566   1.93765   1.94281   1.94532
 Alpha virt. eigenvalues --    1.95049   1.95525   1.95903   1.96169   1.96946
 Alpha virt. eigenvalues --    1.97086   1.97315   1.97540   1.97922   1.98220
 Alpha virt. eigenvalues --    1.98526   1.99304   1.99371   2.00009   2.00078
 Alpha virt. eigenvalues --    2.00599   2.00898   2.01483   2.02022   2.02274
 Alpha virt. eigenvalues --    2.02943   2.03143   2.03377   2.03767   2.04321
 Alpha virt. eigenvalues --    2.04533   2.04689   2.05019   2.05421   2.05734
 Alpha virt. eigenvalues --    2.06158   2.06196   2.06612   2.07036   2.07156
 Alpha virt. eigenvalues --    2.07479   2.07626   2.07765   2.08087   2.08509
 Alpha virt. eigenvalues --    2.08901   2.09787   2.10151   2.10357   2.10867
 Alpha virt. eigenvalues --    2.11089   2.11233   2.11643   2.11762   2.12137
 Alpha virt. eigenvalues --    2.12456   2.12722   2.13142   2.13449   2.13655
 Alpha virt. eigenvalues --    2.14241   2.14276   2.14593   2.15271   2.15535
 Alpha virt. eigenvalues --    2.15830   2.16169   2.16775   2.17007   2.17500
 Alpha virt. eigenvalues --    2.17998   2.18039   2.18703   2.18906   2.19078
 Alpha virt. eigenvalues --    2.19305   2.19420   2.19837   2.20194   2.21106
 Alpha virt. eigenvalues --    2.21525   2.21886   2.22252   2.22499   2.22822
 Alpha virt. eigenvalues --    2.23261   2.23979   2.24297   2.24716   2.25022
 Alpha virt. eigenvalues --    2.25457   2.25879   2.26448   2.26589   2.26698
 Alpha virt. eigenvalues --    2.26894   2.27102   2.27608   2.27967   2.28273
 Alpha virt. eigenvalues --    2.28893   2.29307   2.29528   2.29693   2.29821
 Alpha virt. eigenvalues --    2.30504   2.30709   2.31003   2.31283   2.31443
 Alpha virt. eigenvalues --    2.31983   2.32398   2.32611   2.32947   2.33237
 Alpha virt. eigenvalues --    2.33721   2.33901   2.34325   2.34614   2.35193
 Alpha virt. eigenvalues --    2.35514   2.35750   2.36232   2.36560   2.37066
 Alpha virt. eigenvalues --    2.37318   2.37580   2.37783   2.38342   2.38903
 Alpha virt. eigenvalues --    2.39248   2.39633   2.40212   2.40336   2.40671
 Alpha virt. eigenvalues --    2.40903   2.41276   2.41745   2.41974   2.42210
 Alpha virt. eigenvalues --    2.42352   2.43020   2.43303   2.44027   2.44092
 Alpha virt. eigenvalues --    2.44351   2.44437   2.44843   2.45139   2.45513
 Alpha virt. eigenvalues --    2.46071   2.46538   2.46814   2.47212   2.47539
 Alpha virt. eigenvalues --    2.47986   2.48236   2.48353   2.48570   2.49024
 Alpha virt. eigenvalues --    2.49647   2.49904   2.50075   2.50604   2.50679
 Alpha virt. eigenvalues --    2.51377   2.51572   2.51986   2.52039   2.52906
 Alpha virt. eigenvalues --    2.53194   2.53345   2.53779   2.53980   2.54348
 Alpha virt. eigenvalues --    2.54858   2.55138   2.55451   2.55851   2.56183
 Alpha virt. eigenvalues --    2.56481   2.56709   2.56986   2.57467   2.57495
 Alpha virt. eigenvalues --    2.57818   2.58073   2.58419   2.58677   2.58759
 Alpha virt. eigenvalues --    2.59252   2.59563   2.60130   2.60356   2.60826
 Alpha virt. eigenvalues --    2.61334   2.61365   2.61629   2.61853   2.62375
 Alpha virt. eigenvalues --    2.62647   2.63031   2.63304   2.63462   2.64246
 Alpha virt. eigenvalues --    2.64418   2.64600   2.64906   2.65540   2.65642
 Alpha virt. eigenvalues --    2.66147   2.66501   2.66634   2.67077   2.67303
 Alpha virt. eigenvalues --    2.67414   2.67941   2.68120   2.68271   2.68499
 Alpha virt. eigenvalues --    2.69176   2.69244   2.69589   2.69792   2.69944
 Alpha virt. eigenvalues --    2.70400   2.71072   2.71140   2.71208   2.71332
 Alpha virt. eigenvalues --    2.72046   2.72376   2.72771   2.73216   2.73287
 Alpha virt. eigenvalues --    2.73547   2.74017   2.74517   2.74615   2.75147
 Alpha virt. eigenvalues --    2.75335   2.75502   2.75542   2.76693   2.76762
 Alpha virt. eigenvalues --    2.76944   2.77189   2.77639   2.78030   2.78157
 Alpha virt. eigenvalues --    2.78391   2.78686   2.78882   2.79036   2.79712
 Alpha virt. eigenvalues --    2.79873   2.80283   2.80489   2.80699   2.80894
 Alpha virt. eigenvalues --    2.81381   2.81720   2.81964   2.82235   2.82657
 Alpha virt. eigenvalues --    2.82739   2.83103   2.83395   2.83787   2.84042
 Alpha virt. eigenvalues --    2.84314   2.84441   2.84674   2.84749   2.85178
 Alpha virt. eigenvalues --    2.85435   2.85782   2.86007   2.86158   2.86401
 Alpha virt. eigenvalues --    2.87018   2.87249   2.87439   2.87935   2.88228
 Alpha virt. eigenvalues --    2.88586   2.88631   2.88816   2.88976   2.89387
 Alpha virt. eigenvalues --    2.89662   2.89769   2.90069   2.90315   2.90491
 Alpha virt. eigenvalues --    2.90797   2.90925   2.91206   2.91445   2.91904
 Alpha virt. eigenvalues --    2.91972   2.92137   2.92650   2.92698   2.92909
 Alpha virt. eigenvalues --    2.93121   2.93295   2.93670   2.94031   2.94116
 Alpha virt. eigenvalues --    2.94733   2.94876   2.95427   2.95976   2.96257
 Alpha virt. eigenvalues --    2.96518   2.96869   2.97160   2.97466   2.97729
 Alpha virt. eigenvalues --    2.98267   2.98542   2.98830   2.99247   2.99393
 Alpha virt. eigenvalues --    2.99780   3.00074   3.00280   3.00694   3.00907
 Alpha virt. eigenvalues --    3.01013   3.01279   3.01481   3.01938   3.02241
 Alpha virt. eigenvalues --    3.02579   3.02677   3.03183   3.03736   3.03886
 Alpha virt. eigenvalues --    3.04017   3.04268   3.04398   3.04857   3.04999
 Alpha virt. eigenvalues --    3.05090   3.05355   3.06023   3.06340   3.06615
 Alpha virt. eigenvalues --    3.06775   3.07251   3.07326   3.07491   3.07810
 Alpha virt. eigenvalues --    3.08216   3.08341   3.08433   3.08871   3.08980
 Alpha virt. eigenvalues --    3.09068   3.09267   3.09507   3.09767   3.10009
 Alpha virt. eigenvalues --    3.10607   3.10700   3.10893   3.11111   3.11308
 Alpha virt. eigenvalues --    3.11900   3.12028   3.12275   3.12743   3.13287
 Alpha virt. eigenvalues --    3.13345   3.13557   3.13618   3.13882   3.14417
 Alpha virt. eigenvalues --    3.14731   3.14916   3.15265   3.15556   3.15714
 Alpha virt. eigenvalues --    3.16046   3.16244   3.16609   3.17126   3.17261
 Alpha virt. eigenvalues --    3.17558   3.17975   3.18072   3.18173   3.18590
 Alpha virt. eigenvalues --    3.18894   3.19068   3.19194   3.19569   3.19976
 Alpha virt. eigenvalues --    3.20185   3.20507   3.20916   3.21091   3.21711
 Alpha virt. eigenvalues --    3.21850   3.22105   3.22479   3.22792   3.23116
 Alpha virt. eigenvalues --    3.23275   3.23651   3.23903   3.24248   3.24412
 Alpha virt. eigenvalues --    3.24589   3.24681   3.25259   3.25547   3.25865
 Alpha virt. eigenvalues --    3.26186   3.26407   3.26518   3.26688   3.27124
 Alpha virt. eigenvalues --    3.27377   3.27645   3.27819   3.28045   3.28457
 Alpha virt. eigenvalues --    3.28937   3.28980   3.29187   3.29253   3.29561
 Alpha virt. eigenvalues --    3.29721   3.30000   3.30142   3.30297   3.30578
 Alpha virt. eigenvalues --    3.30672   3.31069   3.31247   3.31794   3.31897
 Alpha virt. eigenvalues --    3.32109   3.32312   3.32667   3.32938   3.33139
 Alpha virt. eigenvalues --    3.33203   3.33323   3.33503   3.33689   3.33829
 Alpha virt. eigenvalues --    3.34109   3.34407   3.34600   3.34785   3.35154
 Alpha virt. eigenvalues --    3.35382   3.35957   3.36138   3.36272   3.36498
 Alpha virt. eigenvalues --    3.36902   3.37033   3.37291   3.37583   3.37786
 Alpha virt. eigenvalues --    3.38069   3.38212   3.38702   3.38806   3.39134
 Alpha virt. eigenvalues --    3.39405   3.39827   3.39953   3.40323   3.40502
 Alpha virt. eigenvalues --    3.40786   3.41061   3.41420   3.42038   3.42363
 Alpha virt. eigenvalues --    3.42728   3.43080   3.43407   3.43558   3.43806
 Alpha virt. eigenvalues --    3.44226   3.44733   3.44835   3.44957   3.45236
 Alpha virt. eigenvalues --    3.45379   3.45708   3.45902   3.46401   3.46788
 Alpha virt. eigenvalues --    3.47081   3.47145   3.47436   3.47632   3.47882
 Alpha virt. eigenvalues --    3.48453   3.48845   3.49298   3.49333   3.49829
 Alpha virt. eigenvalues --    3.49957   3.50087   3.50544   3.50856   3.51053
 Alpha virt. eigenvalues --    3.51072   3.51678   3.52088   3.52195   3.52538
 Alpha virt. eigenvalues --    3.52763   3.53286   3.53546   3.53834   3.54035
 Alpha virt. eigenvalues --    3.54341   3.54537   3.55453   3.55673   3.55920
 Alpha virt. eigenvalues --    3.56234   3.57023   3.57419   3.57866   3.58049
 Alpha virt. eigenvalues --    3.58449   3.58612   3.59011   3.59482   3.59786
 Alpha virt. eigenvalues --    3.59972   3.60070   3.60635   3.61046   3.61368
 Alpha virt. eigenvalues --    3.61569   3.61894   3.62347   3.62424   3.62831
 Alpha virt. eigenvalues --    3.63162   3.63654   3.64349   3.64822   3.65293
 Alpha virt. eigenvalues --    3.65609   3.65998   3.66252   3.66361   3.67055
 Alpha virt. eigenvalues --    3.67534   3.67735   3.68253   3.68854   3.68893
 Alpha virt. eigenvalues --    3.69126   3.69431   3.69785   3.70043   3.70499
 Alpha virt. eigenvalues --    3.70538   3.71686   3.72174   3.72439   3.72475
 Alpha virt. eigenvalues --    3.72844   3.73037   3.73639   3.74190   3.74523
 Alpha virt. eigenvalues --    3.74556   3.74920   3.75780   3.76081   3.76446
 Alpha virt. eigenvalues --    3.76868   3.77315   3.77523   3.78008   3.78310
 Alpha virt. eigenvalues --    3.78802   3.79364   3.79683   3.80049   3.80327
 Alpha virt. eigenvalues --    3.80830   3.81337   3.81667   3.82207   3.82663
 Alpha virt. eigenvalues --    3.82879   3.83754   3.83921   3.84197   3.84635
 Alpha virt. eigenvalues --    3.85231   3.85439   3.85483   3.86233   3.86368
 Alpha virt. eigenvalues --    3.86672   3.87237   3.87923   3.88728   3.88792
 Alpha virt. eigenvalues --    3.89013   3.89828   3.89938   3.90689   3.91107
 Alpha virt. eigenvalues --    3.91464   3.92108   3.92230   3.92457   3.92972
 Alpha virt. eigenvalues --    3.93105   3.93879   3.94420   3.94883   3.95419
 Alpha virt. eigenvalues --    3.95745   3.96008   3.96400   3.97157   3.97634
 Alpha virt. eigenvalues --    3.97774   3.98731   3.98946   3.99112   3.99500
 Alpha virt. eigenvalues --    4.00065   4.00812   4.01475   4.01691   4.02141
 Alpha virt. eigenvalues --    4.02939   4.03359   4.04191   4.04550   4.04949
 Alpha virt. eigenvalues --    4.05187   4.05812   4.06240   4.06706   4.07588
 Alpha virt. eigenvalues --    4.08263   4.08679   4.09113   4.09809   4.10212
 Alpha virt. eigenvalues --    4.10590   4.10909   4.11694   4.12511   4.12920
 Alpha virt. eigenvalues --    4.13036   4.13794   4.13945   4.14956   4.15692
 Alpha virt. eigenvalues --    4.16382   4.17033   4.17431   4.17529   4.17698
 Alpha virt. eigenvalues --    4.18381   4.18515   4.19138   4.19774   4.20437
 Alpha virt. eigenvalues --    4.20913   4.21264   4.22050   4.22385   4.23326
 Alpha virt. eigenvalues --    4.23626   4.24449   4.25090   4.25232   4.26191
 Alpha virt. eigenvalues --    4.27291   4.27819   4.28780   4.29202   4.30414
 Alpha virt. eigenvalues --    4.30876   4.31109   4.31904   4.32352   4.32598
 Alpha virt. eigenvalues --    4.32809   4.33279   4.34932   4.35195   4.35743
 Alpha virt. eigenvalues --    4.36492   4.37069   4.37725   4.38226   4.38783
 Alpha virt. eigenvalues --    4.39798   4.40254   4.40474   4.41012   4.41600
 Alpha virt. eigenvalues --    4.41740   4.42111   4.42650   4.43590   4.44178
 Alpha virt. eigenvalues --    4.44581   4.45642   4.46126   4.47204   4.47440
 Alpha virt. eigenvalues --    4.48132   4.48820   4.49257   4.49878   4.50744
 Alpha virt. eigenvalues --    4.51169   4.52180   4.52370   4.52848   4.53603
 Alpha virt. eigenvalues --    4.53803   4.54282   4.55134   4.57450   4.57617
 Alpha virt. eigenvalues --    4.57993   4.58357   4.58772   4.60179   4.60983
 Alpha virt. eigenvalues --    4.61211   4.61643   4.62624   4.62811   4.63427
 Alpha virt. eigenvalues --    4.64560   4.64833   4.65326   4.66448   4.66679
 Alpha virt. eigenvalues --    4.66944   4.67884   4.68456   4.69479   4.70237
 Alpha virt. eigenvalues --    4.70464   4.70648   4.71335   4.71517   4.72191
 Alpha virt. eigenvalues --    4.72793   4.73126   4.73506   4.74194   4.74572
 Alpha virt. eigenvalues --    4.74629   4.75536   4.75793   4.76799   4.76901
 Alpha virt. eigenvalues --    4.77624   4.78168   4.78369   4.78739   4.79079
 Alpha virt. eigenvalues --    4.79535   4.79780   4.80313   4.80582   4.81159
 Alpha virt. eigenvalues --    4.81439   4.81878   4.82406   4.82972   4.83438
 Alpha virt. eigenvalues --    4.83658   4.84067   4.84709   4.85132   4.85405
 Alpha virt. eigenvalues --    4.86450   4.86931   4.87642   4.88168   4.88484
 Alpha virt. eigenvalues --    4.89124   4.89276   4.90097   4.90755   4.91448
 Alpha virt. eigenvalues --    4.92499   4.92749   4.93042   4.94216   4.94653
 Alpha virt. eigenvalues --    4.95266   4.95523   4.96720   4.97200   4.97882
 Alpha virt. eigenvalues --    4.98907   4.99649   5.00435   5.01815   5.02545
 Alpha virt. eigenvalues --    5.04462   5.05282   5.06208   5.08608   5.09750
 Alpha virt. eigenvalues --    5.10473   5.10646   5.11133   5.12190   5.12872
 Alpha virt. eigenvalues --    5.13488   5.14917   5.15413   5.15560   5.16484
 Alpha virt. eigenvalues --    5.16731   5.17199   5.17612   5.17695   5.18855
 Alpha virt. eigenvalues --    5.20131   5.20370   5.21636   5.21930   5.23894
 Alpha virt. eigenvalues --    5.24448   5.25279   5.25716   5.26401   5.27273
 Alpha virt. eigenvalues --    5.28625   5.28960   5.30000   5.31435   5.32711
 Alpha virt. eigenvalues --    5.34613   5.35999   5.36873   5.37791   5.39175
 Alpha virt. eigenvalues --    5.39532   5.40792   5.41338   5.42550   5.43582
 Alpha virt. eigenvalues --    5.45476   5.45749   5.48062   5.49219   5.51802
 Alpha virt. eigenvalues --    5.52202   5.53373   5.53613   5.54374   5.55452
 Alpha virt. eigenvalues --    5.56082   5.56956   5.57272   5.57607   5.58751
 Alpha virt. eigenvalues --    5.59163   5.60587   5.61151   5.63128   5.66420
 Alpha virt. eigenvalues --    5.67548   5.70078   5.71046   5.71801   5.73059
 Alpha virt. eigenvalues --    5.76965   5.80340   5.82747   5.82963   5.86822
 Alpha virt. eigenvalues --    5.88192   5.89346   5.90881   5.91124   5.91422
 Alpha virt. eigenvalues --    5.92126   5.92207   5.93374   5.95617   5.97348
 Alpha virt. eigenvalues --    6.02180   6.04407   6.07765   6.08748   6.09323
 Alpha virt. eigenvalues --    6.10696   6.11083   6.15344   6.16248   6.20565
 Alpha virt. eigenvalues --    6.21440   6.23245   6.23710   6.25478   6.28412
 Alpha virt. eigenvalues --    6.29190   6.30739   6.34961   6.40716   6.43170
 Alpha virt. eigenvalues --    6.43668   6.46621   6.47500   6.51330   6.59863
 Alpha virt. eigenvalues --    6.67827   6.71961   6.73038   6.79005   6.82128
 Alpha virt. eigenvalues --    6.87346   6.88915   6.95963   7.01543   7.06372
 Alpha virt. eigenvalues --    7.06672   7.10348   7.14411   7.18536   7.46715
 Alpha virt. eigenvalues --    9.22420   9.42594   9.53686  20.08471  22.42237
 Alpha virt. eigenvalues --   22.42474  22.43558  22.51264  22.56022  22.59397
 Alpha virt. eigenvalues --   22.76089  22.84031  22.85694  22.87348  22.87666
 Alpha virt. eigenvalues --   22.92051  22.92714  22.93558  22.96688  22.98727
 Alpha virt. eigenvalues --   22.99970  23.04922  23.07481  23.10276  23.11940
 Alpha virt. eigenvalues --   23.13024  23.20634  23.21388  23.22389  23.26689
 Alpha virt. eigenvalues --   23.28387  23.34230  23.35913  23.36443  23.37047
 Alpha virt. eigenvalues --   23.42436  23.45533  23.49223  23.52999  23.53147
 Alpha virt. eigenvalues --   23.58100  23.69625  23.73580  23.76473  23.86069
 Alpha virt. eigenvalues --   32.57699  32.77942  32.90586  32.98630  33.01147
 Alpha virt. eigenvalues --   33.10255  43.85989  43.92426  43.93768  43.96016
  Beta  occ. eigenvalues -- -256.53018 -89.12064 -30.26325 -26.09537 -26.09473
  Beta  occ. eigenvalues --  -26.09466 -19.32244 -19.32063 -19.25846 -19.24880
  Beta  occ. eigenvalues --  -14.53407 -14.49219 -14.47344 -14.46904 -14.46737
  Beta  occ. eigenvalues --  -14.46424 -10.42621 -10.41662 -10.37326 -10.35978
  Beta  occ. eigenvalues --  -10.35119 -10.35034 -10.34785 -10.34569 -10.34531
  Beta  occ. eigenvalues --  -10.34481 -10.34443 -10.34287 -10.32483 -10.32359
  Beta  occ. eigenvalues --  -10.32051 -10.31777 -10.31573 -10.31476 -10.31464
  Beta  occ. eigenvalues --  -10.31176 -10.31095 -10.31044 -10.30893 -10.30566
  Beta  occ. eigenvalues --  -10.30517 -10.30379 -10.30123 -10.29965 -10.29905
  Beta  occ. eigenvalues --  -10.29893 -10.29315 -10.28838 -10.28826 -10.28217
  Beta  occ. eigenvalues --  -10.28158 -10.28030 -10.27435 -10.26797 -10.26259
  Beta  occ. eigenvalues --  -10.25923 -10.24600  -8.10117  -6.03751  -6.03442
  Beta  occ. eigenvalues --   -6.02897  -3.55716  -2.30314  -2.30036  -2.29970
  Beta  occ. eigenvalues --   -1.25806  -1.23040  -1.17638  -1.10215  -1.09859
  Beta  occ. eigenvalues --   -1.08619  -1.07521  -1.07024  -1.06137  -1.03344
  Beta  occ. eigenvalues --   -0.94869  -0.94554  -0.94179  -0.93247  -0.92614
  Beta  occ. eigenvalues --   -0.92293  -0.92141  -0.91544  -0.91360  -0.90162
  Beta  occ. eigenvalues --   -0.89413  -0.88078  -0.87384  -0.86556  -0.86338
  Beta  occ. eigenvalues --   -0.85143  -0.83965  -0.83118  -0.82761  -0.82246
  Beta  occ. eigenvalues --   -0.80762  -0.79930  -0.79699  -0.78290  -0.78061
  Beta  occ. eigenvalues --   -0.76199  -0.75980  -0.74514  -0.74346  -0.73592
  Beta  occ. eigenvalues --   -0.72913  -0.72778  -0.72082  -0.69887  -0.69161
  Beta  occ. eigenvalues --   -0.68492  -0.66630  -0.65632  -0.65389  -0.64313
  Beta  occ. eigenvalues --   -0.63315  -0.62703  -0.62506  -0.61703  -0.60544
  Beta  occ. eigenvalues --   -0.59879  -0.59793  -0.59456  -0.59435  -0.58773
  Beta  occ. eigenvalues --   -0.58472  -0.58328  -0.58069  -0.57739  -0.57564
  Beta  occ. eigenvalues --   -0.57411  -0.57101  -0.56529  -0.56203  -0.55909
  Beta  occ. eigenvalues --   -0.55780  -0.55594  -0.55311  -0.55119  -0.54881
  Beta  occ. eigenvalues --   -0.54507  -0.54450  -0.53965  -0.53611  -0.53382
  Beta  occ. eigenvalues --   -0.53184  -0.52772  -0.52585  -0.52485  -0.52217
  Beta  occ. eigenvalues --   -0.51735  -0.51396  -0.51299  -0.51185  -0.51078
  Beta  occ. eigenvalues --   -0.50887  -0.50576  -0.50537  -0.50111  -0.49852
  Beta  occ. eigenvalues --   -0.49754  -0.49683  -0.49210  -0.49126  -0.48905
  Beta  occ. eigenvalues --   -0.48208  -0.47887  -0.47738  -0.47510  -0.47283
  Beta  occ. eigenvalues --   -0.46827  -0.46258  -0.46140  -0.46005  -0.45815
  Beta  occ. eigenvalues --   -0.45595  -0.45352  -0.45060  -0.44624  -0.44230
  Beta  occ. eigenvalues --   -0.43780  -0.43469  -0.43136  -0.42880  -0.42632
  Beta  occ. eigenvalues --   -0.42586  -0.42485  -0.41520  -0.40906  -0.40671
  Beta  occ. eigenvalues --   -0.39824  -0.37966  -0.37931  -0.36913  -0.35820
  Beta  occ. eigenvalues --   -0.35415  -0.35396  -0.34639  -0.33807  -0.33520
  Beta  occ. eigenvalues --   -0.32971  -0.29206  -0.28583
  Beta virt. eigenvalues --   -0.19723  -0.19481  -0.17375  -0.15386  -0.15128
  Beta virt. eigenvalues --   -0.10888  -0.10769  -0.09505  -0.08746  -0.08120
  Beta virt. eigenvalues --   -0.06263  -0.05986  -0.05911  -0.04802  -0.04609
  Beta virt. eigenvalues --   -0.04388  -0.04276  -0.03213  -0.02849  -0.02331
  Beta virt. eigenvalues --   -0.02171  -0.02039  -0.01770  -0.01281  -0.00970
  Beta virt. eigenvalues --   -0.00877  -0.00139   0.00187   0.00246   0.00466
  Beta virt. eigenvalues --    0.00694   0.00749   0.01130   0.01374   0.01566
  Beta virt. eigenvalues --    0.01953   0.02184   0.02453   0.02828   0.03152
  Beta virt. eigenvalues --    0.03215   0.03540   0.03645   0.03880   0.04114
  Beta virt. eigenvalues --    0.04279   0.04524   0.04798   0.04913   0.05013
  Beta virt. eigenvalues --    0.05199   0.05416   0.05532   0.05897   0.05940
  Beta virt. eigenvalues --    0.06233   0.06455   0.06522   0.06751   0.06818
  Beta virt. eigenvalues --    0.06944   0.07127   0.07353   0.07436   0.07843
  Beta virt. eigenvalues --    0.08036   0.08170   0.08372   0.08621   0.08928
  Beta virt. eigenvalues --    0.08985   0.09213   0.09291   0.09474   0.09624
  Beta virt. eigenvalues --    0.09940   0.10102   0.10343   0.10409   0.10578
  Beta virt. eigenvalues --    0.10665   0.10877   0.11184   0.11349   0.11542
  Beta virt. eigenvalues --    0.11753   0.11935   0.12196   0.12448   0.12506
  Beta virt. eigenvalues --    0.12712   0.12872   0.13056   0.13174   0.13380
  Beta virt. eigenvalues --    0.13775   0.13984   0.14020   0.14217   0.14541
  Beta virt. eigenvalues --    0.14829   0.15012   0.15170   0.15444   0.15609
  Beta virt. eigenvalues --    0.15830   0.16077   0.16233   0.16479   0.16667
  Beta virt. eigenvalues --    0.17063   0.17307   0.17337   0.17459   0.17844
  Beta virt. eigenvalues --    0.18096   0.18217   0.18492   0.18603   0.18835
  Beta virt. eigenvalues --    0.19041   0.19223   0.19316   0.19564   0.19770
  Beta virt. eigenvalues --    0.20186   0.20367   0.20625   0.20742   0.20821
  Beta virt. eigenvalues --    0.21007   0.21361   0.21531   0.21827   0.21863
  Beta virt. eigenvalues --    0.22137   0.22407   0.22536   0.22900   0.22976
  Beta virt. eigenvalues --    0.23470   0.23713   0.23811   0.24245   0.24360
  Beta virt. eigenvalues --    0.24726   0.24921   0.25194   0.25412   0.25662
  Beta virt. eigenvalues --    0.25705   0.26071   0.26406   0.26713   0.26864
  Beta virt. eigenvalues --    0.27094   0.27162   0.27418   0.27563   0.27877
  Beta virt. eigenvalues --    0.28021   0.28330   0.28626   0.28878   0.29184
  Beta virt. eigenvalues --    0.29516   0.29584   0.29745   0.30148   0.30373
  Beta virt. eigenvalues --    0.30503   0.30641   0.30904   0.31078   0.31291
  Beta virt. eigenvalues --    0.31511   0.31854   0.31872   0.31975   0.32116
  Beta virt. eigenvalues --    0.32512   0.32681   0.32813   0.33005   0.33101
  Beta virt. eigenvalues --    0.33523   0.33618   0.34113   0.34218   0.34320
  Beta virt. eigenvalues --    0.34497   0.34682   0.34782   0.34921   0.34998
  Beta virt. eigenvalues --    0.35252   0.35532   0.35684   0.35817   0.36108
  Beta virt. eigenvalues --    0.36151   0.36244   0.36424   0.36667   0.36887
  Beta virt. eigenvalues --    0.36956   0.37079   0.37100   0.37386   0.37747
  Beta virt. eigenvalues --    0.37928   0.38061   0.38215   0.38275   0.38462
  Beta virt. eigenvalues --    0.38635   0.38920   0.38992   0.39117   0.39179
  Beta virt. eigenvalues --    0.39375   0.39605   0.39869   0.39939   0.40148
  Beta virt. eigenvalues --    0.40327   0.40526   0.40604   0.40772   0.40952
  Beta virt. eigenvalues --    0.41291   0.41365   0.41506   0.41637   0.41851
  Beta virt. eigenvalues --    0.42090   0.42261   0.42460   0.42560   0.42675
  Beta virt. eigenvalues --    0.42973   0.43031   0.43263   0.43376   0.43560
  Beta virt. eigenvalues --    0.43887   0.44154   0.44423   0.44543   0.44686
  Beta virt. eigenvalues --    0.44832   0.45024   0.45052   0.45420   0.45717
  Beta virt. eigenvalues --    0.45840   0.46078   0.46163   0.46355   0.46467
  Beta virt. eigenvalues --    0.46786   0.46963   0.47089   0.47182   0.47482
  Beta virt. eigenvalues --    0.47659   0.47952   0.48269   0.48389   0.48574
  Beta virt. eigenvalues --    0.48832   0.48876   0.49370   0.49586   0.49694
  Beta virt. eigenvalues --    0.49839   0.50046   0.50128   0.50467   0.50780
  Beta virt. eigenvalues --    0.50922   0.51187   0.51291   0.51413   0.51632
  Beta virt. eigenvalues --    0.51807   0.52047   0.52402   0.52619   0.52688
  Beta virt. eigenvalues --    0.53088   0.53291   0.53664   0.53891   0.53954
  Beta virt. eigenvalues --    0.54215   0.54382   0.54529   0.54718   0.54935
  Beta virt. eigenvalues --    0.55278   0.55472   0.55578   0.55893   0.56153
  Beta virt. eigenvalues --    0.56454   0.56930   0.57055   0.57383   0.57575
  Beta virt. eigenvalues --    0.57802   0.58059   0.58130   0.58526   0.58654
  Beta virt. eigenvalues --    0.58891   0.59181   0.59419   0.59532   0.60115
  Beta virt. eigenvalues --    0.60324   0.60582   0.60841   0.61327   0.61450
  Beta virt. eigenvalues --    0.61511   0.61776   0.62050   0.62339   0.62627
  Beta virt. eigenvalues --    0.62815   0.63188   0.63281   0.63790   0.63908
  Beta virt. eigenvalues --    0.64131   0.64477   0.64861   0.65114   0.65263
  Beta virt. eigenvalues --    0.65669   0.65902   0.65988   0.66407   0.66812
  Beta virt. eigenvalues --    0.67026   0.67389   0.67645   0.68028   0.68164
  Beta virt. eigenvalues --    0.68570   0.68803   0.69097   0.69312   0.69640
  Beta virt. eigenvalues --    0.69897   0.70092   0.70416   0.70526   0.70819
  Beta virt. eigenvalues --    0.71259   0.71492   0.71530   0.72131   0.72292
  Beta virt. eigenvalues --    0.72415   0.72615   0.73166   0.73238   0.73587
[...]
  1761. RY*(   4) H  89                  0.00003     1.87991   
  1762. RY*(   5) H  89                  0.00000     2.77904   
  1763. RY*(   1) H  90                  0.00035     1.33638   
  1764. RY*(   2) H  90                  0.00011     1.42097   
  1765. RY*(   3) H  90                  0.00003     2.17028   
  1766. RY*(   4) H  90                  0.00003     2.20190   
  1767. RY*(   5) H  90                  0.00000     3.17221   
  1768. RY*(   1) H  91                  0.00032     1.30827   
  1769. RY*(   2) H  91                  0.00011     1.52699   
  1770. RY*(   3) H  91                  0.00004     2.24937   
  1771. RY*(   4) H  91                  0.00002     2.48983   
  1772. RY*(   5) H  91                  0.00001     2.71142   
  1773. RY*(   1) H  92                  0.00027     1.50890   
  1774. RY*(   2) H  92                  0.00008     1.48521   
  1775. RY*(   3) H  92                  0.00004     2.15755   
  1776. RY*(   4) H  92                  0.00001     2.11864   
  1777. RY*(   5) H  92                  0.00000     2.91655   
  1778. RY*(   1) H  93                  0.00050     0.74141   
  1779. RY*(   2) H  93                  0.00012     2.15634   
  1780. RY*(   3) H  93                  0.00005     2.74074   
  1781. RY*(   4) H  93                  0.00005     2.45286   
  1782. RY*(   5) H  93                  0.00000     3.21858   
  1783. RY*(   1) H  94                  0.00025     1.97236   
  1784. RY*(   2) H  94                  0.00007     2.65979   
  1785. RY*(   3) H  94                  0.00005     2.63877   
  1786. RY*(   4) H  94                  0.00003     1.29329   
  1787. RY*(   5) H  94                  0.00000     2.89225   
  1788. RY*(   1) H  95                  0.00020     2.07850   
  1789. RY*(   2) H  95                  0.00006     2.47262   
  1790. RY*(   3) H  95                  0.00004     2.64352   
  1791. RY*(   4) H  95                  0.00002     1.17964   
  1792. RY*(   5) H  95                  0.00001     2.87494   
  1793. RY*(   1) H  96                  0.00046     0.65925   
  1794. RY*(   2) H  96                  0.00014     2.25191   
  1795. RY*(   3) H  96                  0.00007     2.38874   
  1796. RY*(   4) H  96                  0.00004     2.59563   
  1797. RY*(   5) H  96                  0.00001     3.30481   
  1798. RY*(   1) H  97                  0.00042     2.04325   
  1799. RY*(   2) H  97                  0.00027     0.54703   
  1800. RY*(   3) H  97                  0.00022     2.02745   
  1801. RY*(   4) H  97                  0.00014     2.11578   
  1802. RY*(   5) H  97                  0.00000     3.20296   
  1803. RY*(   1) H  98                  0.00043     1.13322   
  1804. RY*(   2) H  98                  0.00009     1.84161   
  1805. RY*(   3) H  98                  0.00004     1.94398   
  1806. RY*(   4) H  98                  0.00005     2.42533   
  1807. RY*(   5) H  98                  0.00000     2.92101   
  1808. RY*(   1) H  99                  0.00029     1.23304   
  1809. RY*(   2) H  99                  0.00005     1.61554   
  1810. RY*(   3) H  99                  0.00004     2.04928   
  1811. RY*(   4) H  99                  0.00002     1.68862   
  1812. RY*(   5) H  99                  0.00001     2.82063   
  1813. RY*(   1) H 100                  0.00036     1.66506   
  1814. RY*(   2) H 100                  0.00008     2.55239   
  1815. RY*(   3) H 100                  0.00005     2.26445   
  1816. RY*(   4) H 100                  0.00003     1.29258   
  1817. RY*(   5) H 100                  0.00000     2.79343   
  1818. RY*(   1) H 101                  0.00035     0.98586   
  1819. RY*(   2) H 101                  0.00006     1.68909   
  1820. RY*(   3) H 101                  0.00005     2.03574   
  1821. RY*(   4) H 101                  0.00001     2.21343   
  1822. RY*(   5) H 101                  0.00001     2.55070   
  1823. RY*(   1) H 102                  0.00036     0.87645   
  1824. RY*(   2) H 102                  0.00008     1.68568   
  1825. RY*(   3) H 102                  0.00003     1.93736   
  1826. RY*(   4) H 102                  0.00003     1.97466   
  1827. RY*(   5) H 102                  0.00000     2.84008   
  1828. RY*(   1) H 103                  0.00023   -10.50081   
  1829. RY*(   2) H 103                  0.00007    -4.26515   
  1830. RY*(   3) H 103                  0.00007    -0.25914   
  1831. RY*(   4) H 103                  0.00004     0.45563   
  1832. RY*(   5) H 103                  0.00000   -24.46437   
  1833. BD*(   1) C   1 - C   2          0.00638     0.28477   
  1834. BD*(   1) C   1 - H   7          0.00155     0.31351   
  1835. BD*(   1) C   1 - H   8          0.00392     0.30737   
  1836. BD*(   1) C   1 - H 102          0.00464     0.30783   
  1837. BD*(   1) C   2 - N   3          0.01272     0.36005   
  1838. BD*(   2) C   2 - N   3          0.36708    -0.13809  1843(v),192(v),1836(v)
                                                    259(g),1835(v),234(g),239(g)
                                                    237(g),208(v),290(v)
  1839. BD*(   1) C   2 - C   4          0.01030     0.49017   
  1840. BD*(   1) N   3 - C   5          0.01162     0.36241   
  1841. BD*(   1) N   3 - H   9          0.00563     0.61967   
  1842. BD*(   1) C   4 - N   6          0.00957     0.38179   
  1843. BD*(   2) C   4 - N   6          0.33324    -0.11661  1838(v),192(v),194(v),286(g)
                                                    390(r),196(v),195(v),237(v)
                                                    312(v),1920(r),338(g)
  1844. BD*(   1) C   4 - H  10          0.00560     0.59540   
  1845. BD*(   1) C   5 - N   6          0.00992     0.43746   
  1846. BD*(   1) C   5 - H  11          0.00606     0.55268   
  1847. BD*(   1) N   6 -Fe  23          0.03610     0.27111   
  1848. BD*(   1) C  12 - C  13          0.00414     0.28380   
  1849. BD*(   1) C  12 - H  16          0.00431     0.34730   
  1850. BD*(   1) C  12 - H  17          0.00369     0.32785   
  1851. BD*(   1) C  12 - H 103          0.00347    -1.10463   
  1852. BD*(   1) C  13 - S  14          0.01574     0.07785   
  1853. BD*(   1) C  13 - H  18          0.00686     0.46043   
  1854. BD*(   1) C  13 - H  19          0.00869     0.48097   
  1855. BD*(   1) S  14 - C  15          0.00776     0.08165   
  1856. BD*(   1) S  14 -Fe  23          0.02726     0.25113   
  1857. BD*(   1) C  15 - H  20          0.00611     0.48756   
  1858. BD*(   1) C  15 - H  21          0.00400     0.49571   
  1859. BD*(   1) C  15 - H  22          0.00467     0.49351   
  1860. BD*(   1)Fe  23 - N  28          0.02979     0.31353   
  1861. BD*(   1)Fe  23 - N  39          0.02570     0.31553   
  1862. BD*(   1)Fe  23 - N  47          0.02624     0.30513   
  1863. BD*(   1)Fe  23 - N  55          0.02751     0.31989   
  1864. BD*(   1) C  24 - C  29          0.01123     0.46589   
  1865. BD*(   2) C  24 - C  29          0.19792    -0.05174  1939(v),1884(v),390(r)
                                                    392(r),1869(r),556(g),230(r)
                                                    237(r),226(r),220(r),687(g)
                                                    1878(r),1830(r),393(r)
  1866. BD*(   1) C  24 - C  59          0.01137     0.45695   
  1867. BD*(   1) C  24 - H  66          0.00563     0.64688   
  1868. BD*(   1) C  25 - C  32          0.01061     0.48112   
  1869. BD*(   2) C  25 - C  32          0.19013    -0.04765  1902(v),1884(v),581(g)
                                                    1865(r),1873(r),766(g)
  1870. BD*(   1) C  25 - C  40          0.01096     0.46690   
  1871. BD*(   1) C  25 - H  67          0.00514     0.63383   
  1872. BD*(   1) C  26 - C  43          0.01151     0.47324   
  1873. BD*(   2) C  26 - C  43          0.20569    -0.05411  1920(v),1906(v),1902(v)
                                                    606(g),1050(g),1869(r)
  1874. BD*(   1) C  26 - C  48          0.01080     0.51152   
  1875. BD*(   1) C  26 - H  68          0.00634     0.63053   
  1876. BD*(   1) C  27 - C  51          0.01126     0.48187   
  1877. BD*(   1) C  27 - C  56          0.01104     0.46593   
  1878. BD*(   2) C  27 - C  56          0.20051    -0.05785  1942(v),202(v),1939(v)
                                                    631(g),1388(g),390(r)
                                                    1865(r)
  1879. BD*(   1) C  27 - H  69          0.00555     0.62698   
  1880. BD*(   1) N  28 - C  29          0.01374     0.39560   
  1881. BD*(   1) N  28 - C  32          0.01390     0.39660   
  1882. BD*(   1) C  29 - C  30          0.01593     0.40774   
  1883. BD*(   1) C  30 - C  31          0.00963     0.51388   
  1884. BD*(   2) C  30 - C  31          0.11074    -0.01735  1869(v),1865(v),392(r)
                                                    237(r),230(r),390(r),226(r)
                                                    1891(v),220(r),1830(r)
                                                    389(r),393(r),1888(v)
  1885. BD*(   1) C  30 - C  34          0.01140     0.31850   
  1886. BD*(   1) C  31 - C  32          0.01635     0.39493   
  1887. BD*(   1) C  31 - C  33          0.00866     0.34713   
  1888. BD*(   1) C  33 - H  70          0.00455     0.51128   
  1889. BD*(   1) C  33 - H  71          0.00420     0.51407   
  1890. BD*(   1) C  33 - H  72          0.00350     0.52993   
  1891. BD*(   1) C  34 - C  35          0.00917     0.27049   
  1892. BD*(   1) C  34 - H  73          0.00470     0.50923   
  1893. BD*(   1) C  34 - H  74          0.00506     0.51088   
  1894. BD*(   1) C  35 - C  36          0.02723     0.39896   
  1895. BD*(   1) C  35 - H  75          0.00572     0.48937   
  1896. BD*(   1) C  35 - H  76          0.00545     0.48336   
  1897. BD*(   1) C  36 - O  37          0.01585     0.48434   
  1898. BD*(   2) C  36 - O  37          0.11851    -0.06678  1896(v),1891(v),867(g)
  1899. BD*(   1) C  36 - O  38          0.04214     0.35418   
  1900. BD*(   1) O  38 - H  77          0.00293     0.68427   
  1901. BD*(   1) N  39 - C  40          0.01415     0.31027   
  1902. BD*(   2) N  39 - C  40          0.32908    -0.09465  1869(v),1906(v),1873(v)
                                                    390(r),195(v),970(g),392(r)
                                                    946(g),230(r),581(v),237(r)
                                                    220(r),226(r),393(r),1830(r)
                                                    1856(v)
  1903. BD*(   1) N  39 - C  43          0.01428     0.37725   
  1904. BD*(   1) C  40 - C  41          0.01568     0.39947   
  1905. BD*(   1) C  41 - C  42          0.01101     0.51179   
  1906. BD*(   2) C  41 - C  42          0.12100    -0.02388  1873(v),392(r),1902(v)
                                                    237(r),390(r),230(r),226(r)
                                                    220(r),393(r),1830(r),389(r)
                                                    1913(v),1915(v),394(r)
                                                    401(r),1953(r),1912(v)
                                                    224(r),1910(v)
  1907. BD*(   1) C  41 - C  44          0.00924     0.28037   
  1908. BD*(   1) C  42 - C  43          0.01645     0.38597   
  1909. BD*(   1) C  42 - C  45          0.01174     0.32428   
  1910. BD*(   1) C  44 - H  78          0.00421     0.50285   
  1911. BD*(   1) C  44 - H  79          0.00323     0.51169   
  1912. BD*(   1) C  44 - H  80          0.00447     0.50382   
  1913. BD*(   1) C  45 - C  46          0.00428     0.26237   
  1914. BD*(   1) C  45 - H  81          0.00600     0.32095   
  1915. BD*(   1) C  45 - H 100          0.00773     0.32716   
  1916. BD*(   1) C  46 - H  82          0.00261     0.33437   
  1917. BD*(   1) C  46 - H  83          0.00344     0.33715   
  1918. BD*(   1) C  46 - H 101          0.00337     0.33531   
  1919. BD*(   1) N  47 - C  48          0.01503     0.35761   
  1920. BD*(   2) N  47 - C  48          0.34053    -0.10280  390(r),1873(v),1924(v)
                                                    202(v),392(r),230(r),237(r)
                                                    194(v),220(r),226(r),1830(r)
                                                    393(r),1177(g),389(r)
                                                    1953(r),401(r),394(r)
                                                    1153(g),224(r),396(r),388(r)
                                                    606(v),1851(r),403(r)
                                                    1831(r),391(r),1957(r)
                                                    219(r),251(r),1832(r)
                                                    1955(r),1829(r),1828(r)
                                                    1954(r),1843(r),431(r)
                                                    409(r),239(r),227(r),223(r)
                                                    1847(v),1856(v)
  1921. BD*(   1) N  47 - C  51          0.01362     0.40399   
  1922. BD*(   1) C  48 - C  49          0.01596     0.40000   
  1923. BD*(   1) C  49 - C  50          0.01020     0.54787   
  1924. BD*(   2) C  49 - C  50          0.11610    -0.01618  1920(v),202(v),1933(v)
                                                    1931(v),1929(v),392(r)
  1925. BD*(   1) C  49 - C  52          0.00941     0.31801   
  1926. BD*(   1) C  50 - C  51          0.01627     0.42185   
  1927. BD*(   1) C  50 - C  53          0.01218     0.30514   
  1928. BD*(   1) C  52 - H  84          0.00408     0.50717   
  1929. BD*(   1) C  52 - H  85          0.00456     0.49978   
  1930. BD*(   1) C  52 - H  86          0.00337     0.50737   
  1931. BD*(   1) C  53 - C  54          0.00360     0.25306   
  1932. BD*(   1) C  53 - H  87          0.00548     0.32598   
  1933. BD*(   1) C  53 - H  98          0.00759     0.32367   
  1934. BD*(   1) C  54 - H  88          0.00350     0.33853   
  1935. BD*(   1) C  54 - H  89          0.00271     0.34285   
  1936. BD*(   1) C  54 - H  99          0.00327     0.33649   
  1937. BD*(   1) N  55 - C  56          0.01510     0.37646   
  1938. BD*(   1) N  55 - C  59          0.01443     0.41263   
  1939. BD*(   2) N  55 - C  59          0.32554    -0.09682  1865(v),1878(v),1942(v)
                                                    195(v),1462(g),1361(g)
                                                    556(v),1465(g),1856(v)
  1940. BD*(   1) C  56 - C  57          0.01635     0.38021   
  1941. BD*(   1) C  57 - C  58          0.01031     0.51958   
  1942. BD*(   2) C  57 - C  58          0.11945    -0.03026  1878(v),1939(v),1949(v)
                                                    392(r),390(r),1946(v)
                                                    1947(v)
  1943. BD*(   1) C  57 - C  60          0.00945     0.32811   
  1944. BD*(   1) C  58 - C  59          0.01752     0.36898   
  1945. BD*(   1) C  58 - C  61          0.01121     0.31696   
  1946. BD*(   1) C  60 - H  90          0.00460     0.49463   
  1947. BD*(   1) C  60 - H  91          0.00431     0.49255   
  1948. BD*(   1) C  60 - H  92          0.00338     0.49889   
  1949. BD*(   1) C  61 - C  62          0.01071     0.21373   
  1950. BD*(   1) C  61 - H  93          0.00550     0.48052   
  1951. BD*(   1) C  61 - H  94          0.00431     0.48527   
  1952. BD*(   1) C  62 - C  63          0.02769     0.39440   
  1953. BD*(   1) C  62 - H  95          0.00538    -0.46760   
  1954. BD*(   1) C  62 - H  96          0.00535    -9.53566   
  1955. BD*(   1) C  63 - O  64          0.03660    -1.07574   
  1956. BD*(   1) C  63 - O  65          0.02167     3.16327   
  1957. BD*(   2) C  63 - O  65          0.09691   -26.66623   
  1958. BD*(   1) O  64 - H  97          0.00616     2.48053   
       -------------------------------
              Total Lewis  197.93578  ( 97.5053%)
        Valence non-Lewis    4.71556  (  2.3229%)
        Rydberg non-Lewis    0.34866  (  0.1718%)
       -------------------------------
            Total unit  1  203.00000  (100.0000%)
           Charge unit  1    3.00000
 1\1\GINC-NODE652\SP\UPBE1PBE\def2TZVP\C41H50Fe1N6O4S1(1+,6)\ZHARTOVSKA
 \05-Jan-2023\0\\# PBE1PBE/def2TZVP scf=maxcycle=999 empiricaldispersio
 n=GD3BJ int=(grid=ultrafine) geom=check pop=nbo\\1c75_III_H\\1,6\C,0,1
 4.33,22.021,6.122\C,0,13.799,22.662,4.866\N,0,14.606,23.313,4.\C,0,12.
 558,22.732,4.329\C,0,13.866,23.798,2.987\N,0,12.611,23.461,3.171\H,0,1
 3.51231112,21.67303303,6.71798983\H,0,14.89576136,22.73956268,6.677411
 35\H,0,15.457,23.402,4.083\H,0,11.792,22.347,4.689\H,0,14.191,24.293,2
 .27\C,0,10.185,23.957,-2.066\C,0,9.307,23.606,-0.895\S,0,9.505,24.779,
 0.466\C,0,7.878,24.65,1.219\H,0,11.19513518,24.07229612,-1.73248281\H,
 0,9.84698146,24.87322448,-2.50323696\H,0,8.379,23.601,-1.18\H,0,9.528,
 22.714,-0.584\H,0,7.726,23.744,1.499\H,0,7.831,25.232,1.98\H,0,7.209,2
 4.903,0.58\Fe,0,11.14,24.004,1.938\C,0,13.08,26.199,0.234\C,0,10.285,2
 6.45,4.144\C,0,9.038,21.828,3.528\C,0,12.199,21.455,-0.043\N,0,11.604,
 25.933,2.157\C,0,12.406,26.699,1.345\C,0,12.449,28.063,1.797\C,0,11.70
 8,28.122,2.933\C,0,11.159,26.792,3.132\C,0,11.456,29.284,3.835\C,0,13.
 219,29.185,1.129\C,0,14.759,29.023,1.193\C,0,15.299,28.908,2.489\O,0,1
 4.902,29.575,3.464\O,0,16.211,28.005,2.635\N,0,9.913,24.117,3.481\C,0,
 9.685,25.205,4.291\C,0,8.749,24.893,5.346\C,0,8.34,23.617,5.135\C,0,9.
 085,23.133,3.989\C,0,8.382,25.85,6.444\C,0,7.364,22.794,5.922\C,0,5.93
 7,23.397,5.937\N,0,10.676,22.083,1.735\C,0,9.779,21.33,2.504\C,0,9.819
 ,19.936,2.13\C,0,10.695,19.85,1.125\C,0,11.232,21.157,0.897\C,0,9.046,
 18.849,2.831\C,0,11.219,18.578,0.474\C,0,10.056,17.739,-0.135\N,0,12.3
 83,23.864,0.416\C,0,12.729,22.72,-0.275\C,0,13.683,23.005,-1.331\C,0,1
 3.94,24.327,-1.237\C,0,13.103,24.858,-0.158\C,0,14.186,21.964,-2.273\C
 ,0,14.809,25.221,-2.071\C,0,13.96,26.122,-3.063\C,0,14.517,27.402,-3.2
 23\O,0,15.147,27.684,-4.29\O,0,14.468,28.25,-2.292\H,0,13.552,26.806,-
 0.29\H,0,10.082,27.101,4.775\H,0,8.451,21.245,3.953\H,0,12.52,20.754,-
 0.563\H,0,10.526,29.521,3.8\H,0,11.692,29.047,4.735\H,0,11.988,30.031,
 3.551\H,0,12.977,30.024,1.551\H,0,12.95,29.236,0.199\H,0,15.006,28.234
 ,0.686\H,0,15.166,29.789,0.757\H,0,16.531,28.058,3.389\H,0,7.987,26.63
 8,6.064\H,0,7.753,25.431,7.036\H,0,9.171,26.092,6.934\H,0,7.31853251,2
 1.81367103,5.49563418\H,0,5.26818918,22.71850146,6.42406449\H,0,5.9484
 8736,24.32740143,6.46531925\H,0,8.993,19.046,3.768\H,0,8.16,18.799,2.4
 64\H,0,9.491,18.008,2.706\H,0,11.90715192,18.83921912,-0.30260255\H,0,
 9.32701362,17.53773829,0.62194953\H,0,10.44227641,16.81541574,-0.51273
 356\H,0,14.712,21.323,-1.791\H,0,13.442,21.52,-2.687\H,0,14.727,22.379
 ,-2.949\H,0,15.33,25.794,-1.487\H,0,15.427,24.677,-2.583\H,0,13.91,25.
 685,-3.927\H,0,13.056,26.208,-2.721\H,0,16.10698849,27.68520104,-4.294
 54437\H,0,11.72705005,17.9907918,1.21018726\H,0,9.59998839,18.28764013
 ,-0.93246312\H,0,7.71464718,22.71539962,6.92985343\H,0,5.60875367,23.5
 6156424,4.93197614\H,0,14.9590038,21.19521428,5.8625156\H,0,10.1370678
 ,23.17501099,-2.79476312\\Version=ES64L-G16RevA.03\State=6-A\HF=-3881.
 2677265\S2=8.760118\S2-1=0.\S2A=8.75003\RMSD=8.968e-09\Dipole=0.887335
 ,-2.7202173,0.3380288\Quadrupole=12.741603,-19.9113368,7.1697338,3.064
 6286,-18.1986616,-3.8783095\PG=C01 [X(C41H50Fe1N6O4S1)]\\@


 ...THE PHYSICISTS HAVE MADE THEIR UNIVERSE, AND IF YOU DO NOT LIKE
 IT, YOU MUST MAKE YOUR OWN.
                               -- E. R. HARRISON IN "COSMOLOGY" (1980)
 Job cpu time:       2 days 17 hours 32 minutes 55.8 seconds.
 Elapsed time:       0 days 16 hours 26 minutes  8.4 seconds.
 File lengths (MBytes):  RWF=   3538 Int=      0 D2E=      0 Chk=    296 Scr=      1
 Normal termination of Gaussian 16 at Thu Jan  5 04:57:55 2023.
