 Initial command:
 /afs/math/software/gaussian/g16.A03/g16/l1.exe "/scratch/zhartovska_gaussian.3VlsubT/Gau-21632.inp" -scrdir="/scratch/zhartovska_gaussian.3VlsubT/"
 Entering Link 1 = /afs/math/software/gaussian/g16.A03/g16/l1.exe PID=     11534.
  
 Copyright (c) 1988,1990,1992,1993,1995,1998,2003,2009,2016,
            Gaussian, Inc.  All Rights Reserved.
  
 This is part of the Gaussian(R) 16 program.  It is based on
 the Gaussian(R) 09 system (copyright 2009, Gaussian, Inc.),
 the Gaussian(R) 03 system (copyright 2003, Gaussian, Inc.),
 the Gaussian(R) 98 system (copyright 1998, Gaussian, Inc.),
 the Gaussian(R) 94 system (copyright 1995, Gaussian, Inc.),
 the Gaussian 92(TM) system (copyright 1992, Gaussian, Inc.),
 the Gaussian 90(TM) system (copyright 1990, Gaussian, Inc.),
 the Gaussian 88(TM) system (copyright 1988, Gaussian, Inc.),
 the Gaussian 86(TM) system (copyright 1986, Carnegie Mellon
 University), and the Gaussian 82(TM) system (copyright 1983,
 Carnegie Mellon University). Gaussian is a federally registered
 trademark of Gaussian, Inc.
  
 This software contains proprietary and confidential information,
 including trade secrets, belonging to Gaussian, Inc.
  
 This software is provided under written license and may be
 used, copied, transmitted, or stored only in accord with that
 written license.
  
 The following legend is applicable only to US Government
 contracts under FAR:
  
                    RESTRICTED RIGHTS LEGEND
  
 Use, reproduction and disclosure by the US Government is
 subject to restrictions as set forth in subparagraphs (a)
 and (c) of the Commercial Computer Software - Restricted
 Rights clause in FAR 52.227-19.
  
 Gaussian, Inc.
 340 Quinnipiac St., Bldg. 40, Wallingford CT 06492
  
  
 ---------------------------------------------------------------
 Warning -- This program may not be used in any manner that
 competes with the business of Gaussian, Inc. or will provide
 assistance to any competitor of Gaussian, Inc.  The licensee
 of this program is prohibited from giving any competitor of
 Gaussian, Inc. access to this program.  By using this program,
 the user acknowledges that Gaussian, Inc. is engaged in the
 business of creating and licensing software in the field of
 computational chemistry and represents and warrants to the
 licensee that it is not a competitor of Gaussian, Inc. and that
 it will not use this program in any manner prohibited above.
 ---------------------------------------------------------------
  

 Cite this work as:
 Gaussian 16, Revision A.03,
 M. J. Frisch, G. W. Trucks, H. B. Schlegel, G. E. Scuseria, 
 M. A. Robb, J. R. Cheeseman, G. Scalmani, V. Barone, 
 G. A. Petersson, H. Nakatsuji, X. Li, M. Caricato, A. V. Marenich, 
 J. Bloino, B. G. Janesko, R. Gomperts, B. Mennucci, H. P. Hratchian, 
 J. V. Ortiz, A. F. Izmaylov, J. L. Sonnenberg, D. Williams-Young, 
 F. Ding, F. Lipparini, F. Egidi, J. Goings, B. Peng, A. Petrone, 
 T. Henderson, D. Ranasinghe, V. G. Zakrzewski, J. Gao, N. Rega, 
 G. Zheng, W. Liang, M. Hada, M. Ehara, K. Toyota, R. Fukuda, 
 J. Hasegawa, M. Ishida, T. Nakajima, Y. Honda, O. Kitao, H. Nakai, 
 T. Vreven, K. Throssell, J. A. Montgomery, Jr., J. E. Peralta, 
 F. Ogliaro, M. J. Bearpark, J. J. Heyd, E. N. Brothers, K. N. Kudin, 
 V. N. Staroverov, T. A. Keith, R. Kobayashi, J. Normand, 
 K. Raghavachari, A. P. Rendell, J. C. Burant, S. S. Iyengar, 
 J. Tomasi, M. Cossi, J. M. Millam, M. Klene, C. Adamo, R. Cammi, 
 J. W. Ochterski, R. L. Martin, K. Morokuma, O. Farkas, 
 J. B. Foresman, and D. J. Fox, Gaussian, Inc., Wallingford CT, 2016.
 
 ******************************************
 Gaussian 16:  AM64L-G16RevA.03 25-Dec-2016
                27-Jan-2023 
 ******************************************
 %nprocs=12
 Will use up to   12 processors via shared memory.
 %mem=16GB
 %chk=1ccc_III_H.chk
 ----------------------------------------------------------------------
 # PBE1PBE/def2TZVP empiricaldispersion=GD3BJ int=(grid=ultrafine) geom
 =check guess=read scrf=(smd,solvent=Chloroform)
 ----------------------------------------------------------------------
 1/29=2,38=1,172=1/1;
 2/12=2,40=1/2;
 3/5=44,7=101,11=2,14=-4,25=1,30=1,70=32201,72=7,74=-13,75=-5,116=-2,124=41/1,2,3;
 4/5=1/1;
 5/5=2,38=6,53=7/2;
 6/7=2,8=2,9=2,10=2,28=1/1;
 99/5=1,9=1/99;
 ---------------
 1ccc_III_H_solv
 ---------------
 Structure from the checkpoint file:  "1ccc_III_H.chk"
 Charge =  1 Multiplicity = 6
 Z-Matrix found in chk file.
 C,0,-9.179,55.032001,107.751999
 C,0,-8.656,55.674,109.046997
 N,0,-9.337,56.250999,110.028
 C,0,-7.346,55.780998,109.43
 C,0,-8.517,56.655998,110.967003
 N,0,-7.296,56.370998,110.600998
 H,0,-10.269,56.52,109.991997
 C,0,-5.551,53.891998,112.957001
 C,0,-7.582,57.994999,114.478996
 C,0,-6.051,60.050999,110.455002
 C,0,-3.606,56.143002,109.236
 C,0,-6.256,54.818001,113.740997
 C,0,-6.747,54.521999,114.977997
 C,0,-7.371,55.700001,115.428001
 C,0,-7.164,56.651001,114.442001
 C,0,-8.086,55.956001,116.762001
 C,0,-6.553,53.157001,115.632004
 C,0,-5.476,53.071999,116.681
 C,0,-5.338,51.675999,117.300003
 O,0,-6.184,51.243999,118.070999
 O,0,-4.374,50.963001,117.069
 C,0,-7.439,58.946999,113.445
 C,0,-8.009,60.230999,113.431
 C,0,-7.608,60.790001,112.216003
 C,0,-6.791,59.833,111.614998
 C,0,-8.955,60.765999,114.491997
 C,0,-7.873,62.019001,111.592003
 C,0,-8.696,63.097,112.033997
 C,0,-5.174,59.214001,109.761002
 C,0,-4.391,59.620998,108.681
 C,0,-3.586,58.502998,108.416
 C,0,-4.037,57.471001,109.253998
 C,0,-4.411,61.018002,108.022003
 C,0,-2.583,58.320999,107.460999
 C,0,-2.38,59.068001,106.225998
 C,0,-3.969,55.112,110.099998
 C,0,-3.707,53.769001,109.891998
 C,0,-4.284,53.110001,110.969002
 C,0,-4.859,54.103001,111.761002
 C,0,-2.951,53.118999,108.755997
 C,0,-4.239,51.602001,111.250999
 C,0,-3.022,51.188999,112.087997
 C,0,-3.017,49.736,112.529999
 O,0,-2.521,49.410999,113.591003
 O,0,-3.525,48.903,111.799004
 N,0,-6.505,56.102001,113.416
 N,0,-6.791,58.702999,112.305
 N,0,-4.982,57.915001,110.075996
 N,0,-4.679,55.299999,111.214996
 Fe,0,-5.764,57.006001,111.725998
 O,0,-4.379,57.564999,112.833
 H,0,-8.47882994,54.29908433,107.40922351
 H,0,-10.12188072,54.5631492,107.94187774
 H,0,-9.30035533,55.78686697,107.00343354
 H,0,-6.50222068,55.43984647,108.86737038
 H,0,-8.80002455,57.13849908,111.87913775
 H,0,-7.47904095,56.58754034,117.37654048
 H,0,-9.02522183,56.43415344,116.57725092
 H,0,-8.25213139,55.02475525,117.2620827
 H,0,-7.47972763,52.8706197,116.08373583
 H,0,-6.323465,52.44983052,114.86250832
 H,0,-4.5417231,53.34276352,116.23522737
 H,0,-5.70027299,53.77105398,117.45941105
 H,0,-5.91534737,50.79348884,118.87503032
 H,0,-5.5419176,52.88729057,113.32494188
 H,0,-3.54136415,57.90787826,112.513
 H,0,-4.379,57.564999,113.793
 H,0,-4.20968018,51.07792996,110.3185882
 H,0,-5.12873146,51.32300875,111.77582398
 H,0,-2.1391577,51.36883063,111.51080547
 H,0,-2.98770606,51.80700086,112.96080719
 H,0,-1.56611326,49.38201798,113.68561496
 H,0,-2.01608841,52.74483248,109.11771476
 H,0,-3.52911949,52.31079548,108.35915329
 H,0,-2.77260395,53.84121908,107.98692418
 H,0,-2.91158606,55.88546894,108.46375263
 H,0,-3.54203963,61.13558624,107.40882943
 H,0,-5.28919586,61.11512614,107.4184809
 H,0,-4.41561775,61.77094553,108.78223633
 H,0,-1.38787206,59.27539721,105.88311468
 H,0,-3.22310376,59.40898584,105.6622557
 H,0,-1.87950976,57.53968841,107.65988401
 H,0,-6.1751832,61.02216565,110.0233611
 H,0,-8.30749674,64.09379938,112.05287069
 H,0,-9.70184271,62.90881946,112.34667658
 H,0,-7.38829493,62.16872245,110.64990721
 H,0,-8.49365249,61.58701664,114.9999227
 H,0,-9.86064458,61.0970181,114.02817132
 H,0,-9.17714853,59.99086332,115.19535658
 H,0,-8.05468308,58.3282858,115.37921298
 Recover connectivity data from disk.
 Stoichiometry    C38H40FeN6O5(1+,6)
 Framework group  C1[X(C38H40FeN6O5)]
 Deg. of freedom   264
 Full point group                 C1      NOp   1
 Largest Abelian subgroup         C1      NOp   1
 Largest concise Abelian subgroup C1      NOp   1
                         Standard orientation:                         
 ---------------------------------------------------------------------
 Center     Atomic      Atomic             Coordinates (Angstroms)
 Number     Number       Type             X           Y           Z
 ---------------------------------------------------------------------
      1          6           0       -1.569949   -1.838410    4.961434
      2          6           0       -1.479392   -0.895843    3.750616
      3          7           0       -1.693155    0.411778    3.691563
      4          6           0       -1.162440   -1.249704    2.466652
      5          6           0       -1.491293    0.845786    2.471301
      6          7           0       -1.168366   -0.171647    1.718591
      7          1           0       -2.121131    0.949831    4.376849
      8          6           0        2.363359    0.103689    0.237942
      9          6           0       -0.981740    3.544414   -0.259818
     10          6           0       -4.244496    0.084665   -0.644771
     11          6           0       -0.862945   -3.276823   -0.688878
     12          6           0        1.752141    1.363646    0.148080
     13          6           0        2.454817    2.531999    0.156170
     14          6           0        1.492355    3.551874    0.041755
     15          6           0        0.266693    2.918016   -0.082441
     16          6           0        1.707747    5.070714   -0.013430
     17          6           0        3.977852    2.572143    0.241803
     18          6           0        4.707806    2.821643   -1.051435
     19          6           0        6.232571    2.854570   -0.893225
     20          8           0        6.787480    3.798328   -0.347173
     21          8           0        6.943109    1.961180   -1.326830
     22          6           0       -2.241017    2.906098   -0.311552
     23          6           0       -3.487070    3.554977   -0.319243
     24          6           0       -4.429216    2.525371   -0.361342
     25          6           0       -3.690649    1.344435   -0.428095
     26          6           0       -3.679044    5.054793   -0.175876
     27          6           0       -5.832646    2.508679   -0.349091
     28          6           0       -6.747712    3.599106   -0.257492
     29          6           0       -3.640666   -1.168920   -0.768240
     30          6           0       -4.318680   -2.334301   -1.125064
     31          6           0       -3.295330   -3.284463   -1.259688
     32          6           0       -2.107901   -2.663283   -0.841590
     33          6           0       -5.839420   -2.461272   -1.364908
     34          6           0       -3.358381   -4.630509   -1.627580
     35          6           0       -4.512237   -5.519088   -1.568492
     36          6           0        0.351357   -2.680930   -0.354800
     37          6           0        1.495817   -3.361923    0.022047
     38          6           0        2.433591   -2.378155    0.304765
     39          6           0        1.791134   -1.161598    0.078546
     40          6           0        1.721205   -4.853869    0.110569
     41          6           0        3.894296   -2.597839    0.721528
     42          6           0        4.848486   -2.684053   -0.476101
     43          6           0        6.322185   -2.738898   -0.113061
     44          8           0        7.159932   -2.240473   -0.839094
     45          8           0        6.646332   -3.290452    0.924737
     46          7           0        0.432203    1.593744    0.002826
     47          7           0       -2.395877    1.581569   -0.285487
     48          7           0       -2.322517   -1.381173   -0.565956
     49          7           0        0.533194   -1.359426   -0.297990
     50         26           0       -0.955432    0.100357   -0.255377
     51          8           0       -0.710817    0.414192   -2.071370
     52          1           0       -0.939628   -2.687861    4.800098
     53          1           0       -1.251465   -1.319985    5.841606
     54          1           0       -2.581790   -2.163516    5.085460
     55          1           0       -0.945674   -2.241587    2.128896
     56          1           0       -1.576626    1.861783    2.146695
     57          1           0        1.529701    5.420262   -1.008928
     58          1           0        1.029689    5.551814    0.660129
     59          1           0        2.713992    5.298783    0.270042
     60          1           0        4.251353    3.343162    0.931460
     61          1           0        4.312919    1.635882    0.636830
     62          1           0        4.452073    2.047049   -1.743898
     63          1           0        4.384735    3.760007   -1.451432
     64          1           0        7.582380    4.175424   -0.731274
     65          1           0        3.410323    0.112777    0.458589
     66          1           0       -0.994066   -0.188352   -2.762970
     67          1           0       -0.296596    1.184219   -2.467702
     68          1           0        3.959897   -3.507907    1.280430
     69          1           0        4.199766   -1.785638    1.347560
     70          1           0        4.606620   -3.562382   -1.037295
     71          1           0        4.686239   -1.829053   -1.098637
     72          1           0        7.405716   -2.676398   -1.658337
     73          1           0        2.383060   -5.161637   -0.671816
     74          1           0        2.154480   -5.093467    1.059129
     75          1           0        0.785633   -5.362681    0.007060
     76          1           0       -0.838466   -4.334645   -0.847974
     77          1           0       -6.044495   -3.378566   -1.876197
     78          1           0       -6.350507   -2.454929   -0.424881
     79          1           0       -6.176616   -1.638271   -1.959775
     80          1           0       -4.656793   -6.259408   -2.327392
     81          1           0       -5.214736   -5.431083   -0.766214
     82          1           0       -2.451020   -5.060786   -1.996982
     83          1           0       -5.310973    0.075810   -0.731068
     84          1           0       -7.546102    3.688347   -0.964252
     85          1           0       -6.635719    4.327813    0.517972
     86          1           0       -6.280189    1.539244   -0.418379
     87          1           0       -4.097633    5.448676   -1.078394
     88          1           0       -4.341387    5.253143    0.640738
     89          1           0       -2.733355    5.519163    0.011030
     90          1           0       -0.976188    4.609126   -0.365920
 ---------------------------------------------------------------------
 Rotational constants (GHZ):           0.0766737           0.0457560           0.0337649
 Standard basis: def2TZVP (5D, 7F)
 There are  2056 symmetry adapted cartesian basis functions of A   symmetry.
 There are  1804 symmetry adapted basis functions of A   symmetry.
  1804 basis functions,  2921 primitive gaussians,  2056 cartesian basis functions
   190 alpha electrons      185 beta electrons
       nuclear repulsion energy      7619.4034109246 Hartrees.
 NAtoms=   90 NActive=   90 NUniq=   90 SFac= 1.00D+00 NAtFMM=   60 NAOKFM=T Big=T
 Integral buffers will be    131072 words long.
 Raffenetti 2 integral format.
 Two-electron integral symmetry is turned on.
 Nuclear repulsion after empirical dispersion term =     7619.2785381362 Hartrees.
 ------------------------------------------------------------------------------
 Polarizable Continuum Model (PCM)
 =================================
 Model                : PCM.
 Atomic radii         : SMD-Coulomb.
 Polarization charges : Total charges.
 Charge compensation  : None.
 Solution method      : On-the-fly selection.
 Cavity type          : VdW (van der Waals Surface) (Alpha=1.000).
 Cavity algorithm     : GePol (No added spheres)
                        Default sphere list used, NSphG=   90.
                        Lebedev-Laikov grids with approx.  5.0 points / Ang**2.
                        Smoothing algorithm: York/Karplus (Gamma=1.0000).
                        Polarization charges: spherical gaussians, with
                                              point-specific exponents (IZeta= 3).
                        Self-potential: point-specific (ISelfS= 7).
                        Self-field    : sphere-specific E.n sum rule (ISelfD= 2).
 Solvent              : Chloroform, Eps=   4.711300 Eps(inf)=   2.090627
 ------------------------------------------------------------------------------
 ------------------------------------------------------------------------------
 Atomic radii for non-electrostatic terms: SMD-CDS.
 ------------------------------------------------------------------------------
 Nuclear repulsion after PCM non-electrostatic terms =     7619.2581009765 Hartrees.
 One-electron integrals computed using PRISM.
   1 Symmetry operations used in ECPInt.
 ECPInt:  NShTT=  255255 NPrTT=  790653 LenC2=  185308 LenP2D=  372504.
 LDataN:  DoStor=T MaxTD1= 6 Len=  172
 NBasis=  1804 RedAO= T EigKep=  3.00D-06  NBF=  1804
 NBsUse=  1804 1.00D-06 EigRej= -1.00D+00 NBFU=  1804
 Initial guess from the checkpoint file:  "1ccc_III_H.chk"
 B after Tr=    -0.000000   -0.000000   -0.000000
         Rot=    1.000000   -0.000000   -0.000000   -0.000000 Ang=   0.00 deg.
 Initial guess <Sx>= 0.0000 <Sy>= 0.0000 <Sz>= 2.5000 <S**2>= 8.7735 S= 2.5039
 Requested convergence on RMS density matrix=1.00D-08 within 128 cycles.
 Requested convergence on MAX density matrix=1.00D-06.
 Requested convergence on             energy=1.00D-06.
 No special actions if energy rises.
 Inv3:  Mode=1 IEnd=   125001075.
 Iteration    1 A*A^-1 deviation from unit magnitude is 4.44D-15 for    844.
 Iteration    1 A*A^-1 deviation from orthogonality  is 2.98D-15 for   2199   1635.
 Iteration    1 A^-1*A deviation from unit magnitude is 3.89D-15 for    763.
 Iteration    1 A^-1*A deviation from orthogonality  is 1.26D-14 for   2345   2287.
 Restarting incremental Fock formation.
 Error on total polarization charges =  0.07503
 SCF Done:  E(UPBE1PBE) =  -3438.51547088     A.U. after   27 cycles
            NFock= 27  Conv=0.48D-08     -V/T= 2.0025
 <Sx>= 0.0000 <Sy>= 0.0000 <Sz>= 2.5000 <S**2>= 8.7655 S= 2.5026
 <L.S>= 0.000000000000E+00
 SMD-CDS (non-electrostatic) energy       (kcal/mol) =     -12.82
 (included in total energy above)
 Annihilation of the first spin contaminant:
 S**2 before annihilation     8.7655,   after     8.7501

 **********************************************************************

            Population analysis using the SCF density.

 **********************************************************************

 Orbital symmetries:
 Alpha Orbitals:
       Occupied  (A) (A) (A) (A) (A) (A) (A) (A) (A) (A) (A) (A)
                 (A) (A) (A) (A) (A) (A) (A) (A) (A) (A) (A) (A)
                 (A) (A) (A) (A) (A) (A) (A) (A) (A) (A) (A) (A)
                 (A) (A) (A) (A) (A) (A) (A) (A) (A) (A) (A) (A)
                 (A) (A) (A) (A) (A) (A) (A) (A) (A) (A) (A) (A)
                 (A) (A) (A) (A) (A) (A) (A) (A) (A) (A) (A) (A)
                 (A) (A) (A) (A) (A) (A) (A) (A) (A) (A) (A) (A)
                 (A) (A) (A) (A) (A) (A) (A) (A) (A) (A) (A) (A)
                 (A) (A) (A) (A) (A) (A) (A) (A) (A) (A) (A) (A)
                 (A) (A) (A) (A) (A) (A) (A) (A) (A) (A) (A) (A)
                 (A) (A) (A) (A) (A) (A) (A) (A) (A) (A) (A) (A)
                 (A) (A) (A) (A) (A) (A) (A) (A) (A) (A) (A) (A)
                 (A) (A) (A) (A) (A) (A) (A) (A) (A) (A) (A) (A)
                 (A) (A) (A) (A) (A) (A) (A) (A) (A) (A) (A) (A)
                 (A) (A) (A) (A) (A) (A) (A) (A) (A) (A) (A) (A)
                 (A) (A) (A) (A) (A) (A) (A) (A) (A) (A)
       Virtual   (A) (A) (A) (A) (A) (A) (A) (A) (A) (A) (A) (A)
                 (A) (A) (A) (A) (A) (A) (A) (A) (A) (A) (A) (A)
                 (A) (A) (A) (A) (A) (A) (A) (A) (A) (A) (A) (A)
                 (A) (A) (A) (A) (A) (A) (A) (A) (A) (A) (A) (A)
                 (A) (A) (A) (A) (A) (A) (A) (A) (A) (A) (A) (A)
                 (A) (A) (A) (A) (A) (A) (A) (A) (A) (A) (A) (A)
                 (A) (A) (A) (A) (A) (A) (A) (A) (A) (A) (A) (A)
                 (A) (A) (A) (A) (A) (A) (A) (A) (A) (A) (A) (A)
                 (A) (A) (A) (A) (A) (A) (A) (A) (A) (A) (A) (A)
                 (A) (A) (A) (A) (A) (A) (A) (A) (A) (A) (A) (A)
                 (A) (A) (A) (A) (A) (A) (A) (A) (A) (A) (A) (A)
                 (A) (A) (A) (A) (A) (A) (A) (A) (A) (A) (A) (A)
                 (A) (A) (A) (A) (A) (A) (A) (A) (A) (A) (A) (A)
                 (A) (A) (A) (A) (A) (A) (A) (A) (A) (A) (A) (A)
                 (A) (A) (A) (A) (A) (A) (A) (A) (A) (A) (A) (A)
                 (A) (A) (A) (A) (A) (A) (A) (A) (A) (A) (A) (A)
                 (A) (A) (A) (A) (A) (A) (A) (A) (A) (A) (A) (A)
                 (A) (A) (A) (A) (A) (A) (A) (A) (A) (A) (A) (A)
                 (A) (A) (A) (A) (A) (A) (A) (A) (A) (A) (A) (A)
                 (A) (A) (A) (A) (A) (A) (A) (A) (A) (A) (A) (A)
                 (A) (A) (A) (A) (A) (A) (A) (A) (A) (A) (A) (A)
                 (A) (A) (A) (A) (A) (A) (A) (A) (A) (A) (A) (A)
                 (A) (A) (A) (A) (A) (A) (A) (A) (A) (A) (A) (A)
                 (A) (A) (A) (A) (A) (A) (A) (A) (A) (A) (A) (A)
                 (A) (A) (A) (A) (A) (A) (A) (A) (A) (A) (A) (A)
                 (A) (A) (A) (A) (A) (A) (A) (A) (A) (A) (A) (A)
                 (A) (A) (A) (A) (A) (A) (A) (A) (A) (A) (A) (A)
                 (A) (A) (A) (A) (A) (A) (A) (A) (A) (A) (A) (A)
                 (A) (A) (A) (A) (A) (A) (A) (A) (A) (A) (A) (A)
                 (A) (A) (A) (A) (A) (A) (A) (A) (A) (A) (A) (A)
                 (A) (A) (A) (A) (A) (A) (A) (A) (A) (A) (A) (A)
                 (A) (A) (A) (A) (A) (A) (A) (A) (A) (A) (A) (A)
                 (A) (A) (A) (A) (A) (A) (A) (A) (A) (A) (A) (A)
                 (A) (A) (A) (A) (A) (A) (A) (A) (A) (A) (A) (A)
                 (A) (A) (A) (A) (A) (A) (A) (A) (A) (A) (A) (A)
                 (A) (A) (A) (A) (A) (A) (A) (A) (A) (A) (A) (A)
                 (A) (A) (A) (A) (A) (A) (A) (A) (A) (A) (A) (A)
                 (A) (A) (A) (A) (A) (A) (A) (A) (A) (A) (A) (A)
                 (A) (A) (A) (A) (A) (A) (A) (A) (A) (A) (A) (A)
                 (A) (A) (A) (A) (A) (A) (A) (A) (A) (A) (A) (A)
                 (A) (A) (A) (A) (A) (A) (A) (A) (A) (A) (A) (A)
                 (A) (A) (A) (A) (A) (A) (A) (A) (A) (A) (A) (A)
                 (A) (A) (A) (A) (A) (A) (A) (A) (A) (A) (A) (A)
                 (A) (A) (A) (A) (A) (A) (A) (A) (A) (A) (A) (A)
                 (A) (A) (A) (A) (A) (A) (A) (A) (A) (A) (A) (A)
                 (A) (A) (A) (A) (A) (A) (A) (A) (A) (A) (A) (A)
                 (A) (A) (A) (A) (A) (A) (A) (A) (A) (A) (A) (A)
                 (A) (A) (A) (A) (A) (A) (A) (A) (A) (A) (A) (A)
                 (A) (A) (A) (A) (A) (A) (A) (A) (A) (A) (A) (A)
                 (A) (A) (A) (A) (A) (A) (A) (A) (A) (A) (A) (A)
                 (A) (A) (A) (A) (A) (A) (A) (A) (A) (A) (A) (A)
                 (A) (A) (A) (A) (A) (A) (A) (A) (A) (A) (A) (A)
                 (A) (A) (A) (A) (A) (A) (A) (A) (A) (A) (A) (A)
                 (A) (A) (A) (A) (A) (A) (A) (A) (A) (A) (A) (A)
                 (A) (A) (A) (A) (A) (A) (A) (A) (A) (A) (A) (A)
                 (A) (A) (A) (A) (A) (A) (A) (A) (A) (A) (A) (A)
                 (A) (A) (A) (A) (A) (A) (A) (A) (A) (A) (A) (A)
                 (A) (A) (A) (A) (A) (A) (A) (A) (A) (A) (A) (A)
                 (A) (A) (A) (A) (A) (A) (A) (A) (A) (A) (A) (A)
                 (A) (A) (A) (A) (A) (A) (A) (A) (A) (A) (A) (A)
                 (A) (A) (A) (A) (A) (A) (A) (A) (A) (A) (A) (A)
                 (A) (A) (A) (A) (A) (A) (A) (A) (A) (A) (A) (A)
                 (A) (A) (A) (A) (A) (A) (A) (A) (A) (A) (A) (A)
                 (A) (A) (A) (A) (A) (A) (A) (A) (A) (A) (A) (A)
                 (A) (A) (A) (A) (A) (A) (A) (A) (A) (A) (A) (A)
                 (A) (A) (A) (A) (A) (A) (A) (A) (A) (A) (A) (A)
                 (A) (A) (A) (A) (A) (A) (A) (A) (A) (A) (A) (A)
                 (A) (A) (A) (A) (A) (A) (A) (A) (A) (A) (A) (A)
                 (A) (A) (A) (A) (A) (A) (A) (A) (A) (A) (A) (A)
                 (A) (A) (A) (A) (A) (A) (A) (A) (A) (A) (A) (A)
                 (A) (A) (A) (A) (A) (A) (A) (A) (A) (A) (A) (A)
                 (A) (A) (A) (A) (A) (A) (A) (A) (A) (A) (A) (A)
                 (A) (A) (A) (A) (A) (A) (A) (A) (A) (A) (A) (A)
                 (A) (A) (A) (A) (A) (A) (A) (A) (A) (A) (A) (A)
                 (A) (A) (A) (A) (A) (A) (A) (A) (A) (A) (A) (A)
                 (A) (A) (A) (A) (A) (A) (A) (A) (A) (A) (A) (A)
                 (A) (A) (A) (A) (A) (A) (A) (A) (A) (A) (A) (A)
                 (A) (A) (A) (A) (A) (A) (A) (A) (A) (A) (A) (A)
                 (A) (A) (A) (A) (A) (A) (A) (A) (A) (A) (A) (A)
                 (A) (A) (A) (A) (A) (A) (A) (A) (A) (A) (A) (A)
                 (A) (A) (A) (A) (A) (A) (A) (A) (A) (A) (A) (A)
                 (A) (A) (A) (A) (A) (A) (A) (A) (A) (A) (A) (A)
                 (A) (A) (A) (A) (A) (A) (A) (A) (A) (A) (A) (A)
                 (A) (A) (A) (A) (A) (A) (A) (A) (A) (A) (A) (A)
                 (A) (A) (A) (A) (A) (A) (A) (A) (A) (A) (A) (A)
                 (A) (A) (A) (A) (A) (A) (A) (A) (A) (A) (A) (A)
                 (A) (A) (A) (A) (A) (A) (A) (A) (A) (A) (A) (A)
                 (A) (A) (A) (A) (A) (A) (A) (A) (A) (A) (A) (A)
                 (A) (A) (A) (A) (A) (A) (A) (A) (A) (A) (A) (A)
                 (A) (A) (A) (A) (A) (A) (A) (A) (A) (A) (A) (A)
                 (A) (A) (A) (A) (A) (A) (A) (A) (A) (A) (A) (A)
                 (A) (A) (A) (A) (A) (A) (A) (A) (A) (A) (A) (A)
                 (A) (A) (A) (A) (A) (A) (A) (A) (A) (A) (A) (A)
                 (A) (A) (A) (A) (A) (A) (A) (A) (A) (A) (A) (A)
                 (A) (A) (A) (A) (A) (A) (A) (A) (A) (A) (A) (A)
                 (A) (A) (A) (A) (A) (A) (A) (A) (A) (A) (A) (A)
                 (A) (A) (A) (A) (A) (A) (A) (A) (A) (A) (A) (A)
                 (A) (A) (A) (A) (A) (A) (A) (A) (A) (A) (A) (A)
                 (A) (A) (A) (A) (A) (A) (A) (A) (A) (A) (A) (A)
                 (A) (A) (A) (A) (A) (A) (A) (A) (A) (A) (A) (A)
                 (A) (A) (A) (A) (A) (A) (A) (A) (A) (A) (A) (A)
                 (A) (A) (A) (A) (A) (A) (A) (A) (A) (A) (A) (A)
                 (A) (A) (A) (A) (A) (A) (A) (A) (A) (A) (A) (A)
                 (A) (A) (A) (A) (A) (A) (A) (A) (A) (A) (A) (A)
                 (A) (A) (A) (A) (A) (A) (A) (A) (A) (A) (A) (A)
                 (A) (A) (A) (A) (A) (A) (A) (A) (A) (A) (A) (A)
                 (A) (A) (A) (A) (A) (A) (A) (A) (A) (A) (A) (A)
                 (A) (A) (A) (A) (A) (A) (A) (A) (A) (A) (A) (A)
                 (A) (A) (A) (A) (A) (A) (A) (A) (A) (A) (A) (A)
                 (A) (A) (A) (A) (A) (A) (A) (A) (A) (A) (A) (A)
                 (A) (A) (A) (A) (A) (A) (A) (A) (A) (A) (A) (A)
                 (A) (A) (A) (A) (A) (A) (A) (A) (A) (A) (A) (A)
                 (A) (A) (A) (A) (A) (A) (A) (A) (A) (A) (A) (A)
                 (A) (A) (A) (A) (A) (A) (A) (A) (A) (A) (A) (A)
                 (A) (A) (A) (A) (A) (A) (A) (A) (A) (A) (A) (A)
                 (A) (A) (A) (A) (A) (A) (A) (A) (A) (A) (A) (A)
                 (A) (A) (A) (A) (A) (A) (A) (A) (A) (A) (A) (A)
                 (A) (A) (A) (A) (A) (A) (A) (A) (A) (A) (A) (A)
                 (A) (A) (A) (A) (A) (A) (A) (A) (A) (A) (A) (A)
                 (A) (A) (A) (A) (A) (A) (A) (A) (A) (A) (A) (A)
                 (A) (A) (A) (A) (A) (A) (A) (A) (A) (A) (A) (A)
                 (A) (A) (A) (A) (A) (A) (A) (A) (A) (A) (A) (A)
                 (A) (A) (A) (A) (A) (A) (A) (A) (A) (A) (A) (A)
                 (A) (A) (A) (A) (A) (A) (A) (A) (A) (A) (A) (A)
                 (A) (A) (A) (A) (A) (A) (A) (A) (A) (A) (A) (A)
                 (A) (A) (A) (A) (A) (A) (A) (A) (A) (A) (A) (A)
                 (A) (A) (A) (A) (A) (A) (A) (A) (A) (A) (A) (A)
                 (A) (A) (A) (A) (A) (A) (A) (A) (A) (A) (A) (A)
                 (A) (A) (A) (A) (A) (A) (A) (A) (A) (A) (A) (A)
                 (A) (A) (A) (A) (A) (A) (A) (A) (A) (A) (A) (A)
                 (A) (A) (A) (A) (A) (A) (A) (A) (A) (A) (A) (A)
                 (A) (A) (A) (A) (A) (A) (A) (A) (A) (A) (A) (A)
                 (A) (A) (A) (A) (A) (A) (A) (A) (A) (A) (A) (A)
                 (A) (A) (A) (A) (A) (A) (A) (A) (A) (A) (A) (A)
                 (A) (A) (A) (A) (A) (A)
 Beta  Orbitals:
       Occupied  (A) (A) (A) (A) (A) (A) (A) (A) (A) (A) (A) (A)
                 (A) (A) (A) (A) (A) (A) (A) (A) (A) (A) (A) (A)
                 (A) (A) (A) (A) (A) (A) (A) (A) (A) (A) (A) (A)
                 (A) (A) (A) (A) (A) (A) (A) (A) (A) (A) (A) (A)
                 (A) (A) (A) (A) (A) (A) (A) (A) (A) (A) (A) (A)
                 (A) (A) (A) (A) (A) (A) (A) (A) (A) (A) (A) (A)
                 (A) (A) (A) (A) (A) (A) (A) (A) (A) (A) (A) (A)
                 (A) (A) (A) (A) (A) (A) (A) (A) (A) (A) (A) (A)
                 (A) (A) (A) (A) (A) (A) (A) (A) (A) (A) (A) (A)
                 (A) (A) (A) (A) (A) (A) (A) (A) (A) (A) (A) (A)
                 (A) (A) (A) (A) (A) (A) (A) (A) (A) (A) (A) (A)
                 (A) (A) (A) (A) (A) (A) (A) (A) (A) (A) (A) (A)
                 (A) (A) (A) (A) (A) (A) (A) (A) (A) (A) (A) (A)
                 (A) (A) (A) (A) (A) (A) (A) (A) (A) (A) (A) (A)
                 (A) (A) (A) (A) (A) (A) (A) (A) (A) (A) (A) (A)
                 (A) (A) (A) (A) (A)
       Virtual   (A) (A) (A) (A) (A) (A) (A) (A) (A) (A) (A) (A)
                 (A) (A) (A) (A) (A) (A) (A) (A) (A) (A) (A) (A)
                 (A) (A) (A) (A) (A) (A) (A) (A) (A) (A) (A) (A)
                 (A) (A) (A) (A) (A) (A) (A) (A) (A) (A) (A) (A)
                 (A) (A) (A) (A) (A) (A) (A) (A) (A) (A) (A) (A)
                 (A) (A) (A) (A) (A) (A) (A) (A) (A) (A) (A) (A)
                 (A) (A) (A) (A) (A) (A) (A) (A) (A) (A) (A) (A)
                 (A) (A) (A) (A) (A) (A) (A) (A) (A) (A) (A) (A)
                 (A) (A) (A) (A) (A) (A) (A) (A) (A) (A) (A) (A)
                 (A) (A) (A) (A) (A) (A) (A) (A) (A) (A) (A) (A)
                 (A) (A) (A) (A) (A) (A) (A) (A) (A) (A) (A) (A)
                 (A) (A) (A) (A) (A) (A) (A) (A) (A) (A) (A) (A)
                 (A) (A) (A) (A) (A) (A) (A) (A) (A) (A) (A) (A)
                 (A) (A) (A) (A) (A) (A) (A) (A) (A) (A) (A) (A)
                 (A) (A) (A) (A) (A) (A) (A) (A) (A) (A) (A) (A)
                 (A) (A) (A) (A) (A) (A) (A) (A) (A) (A) (A) (A)
                 (A) (A) (A) (A) (A) (A) (A) (A) (A) (A) (A) (A)
                 (A) (A) (A) (A) (A) (A) (A) (A) (A) (A) (A) (A)
                 (A) (A) (A) (A) (A) (A) (A) (A) (A) (A) (A) (A)
                 (A) (A) (A) (A) (A) (A) (A) (A) (A) (A) (A) (A)
                 (A) (A) (A) (A) (A) (A) (A) (A) (A) (A) (A) (A)
                 (A) (A) (A) (A) (A) (A) (A) (A) (A) (A) (A) (A)
                 (A) (A) (A) (A) (A) (A) (A) (A) (A) (A) (A) (A)
                 (A) (A) (A) (A) (A) (A) (A) (A) (A) (A) (A) (A)
                 (A) (A) (A) (A) (A) (A) (A) (A) (A) (A) (A) (A)
                 (A) (A) (A) (A) (A) (A) (A) (A) (A) (A) (A) (A)
                 (A) (A) (A) (A) (A) (A) (A) (A) (A) (A) (A) (A)
                 (A) (A) (A) (A) (A) (A) (A) (A) (A) (A) (A) (A)
                 (A) (A) (A) (A) (A) (A) (A) (A) (A) (A) (A) (A)
                 (A) (A) (A) (A) (A) (A) (A) (A) (A) (A) (A) (A)
                 (A) (A) (A) (A) (A) (A) (A) (A) (A) (A) (A) (A)
                 (A) (A) (A) (A) (A) (A) (A) (A) (A) (A) (A) (A)
                 (A) (A) (A) (A) (A) (A) (A) (A) (A) (A) (A) (A)
                 (A) (A) (A) (A) (A) (A) (A) (A) (A) (A) (A) (A)
                 (A) (A) (A) (A) (A) (A) (A) (A) (A) (A) (A) (A)
                 (A) (A) (A) (A) (A) (A) (A) (A) (A) (A) (A) (A)
                 (A) (A) (A) (A) (A) (A) (A) (A) (A) (A) (A) (A)
                 (A) (A) (A) (A) (A) (A) (A) (A) (A) (A) (A) (A)
                 (A) (A) (A) (A) (A) (A) (A) (A) (A) (A) (A) (A)
                 (A) (A) (A) (A) (A) (A) (A) (A) (A) (A) (A) (A)
                 (A) (A) (A) (A) (A) (A) (A) (A) (A) (A) (A) (A)
                 (A) (A) (A) (A) (A) (A) (A) (A) (A) (A) (A) (A)
                 (A) (A) (A) (A) (A) (A) (A) (A) (A) (A) (A) (A)
                 (A) (A) (A) (A) (A) (A) (A) (A) (A) (A) (A) (A)
                 (A) (A) (A) (A) (A) (A) (A) (A) (A) (A) (A) (A)
                 (A) (A) (A) (A) (A) (A) (A) (A) (A) (A) (A) (A)
                 (A) (A) (A) (A) (A) (A) (A) (A) (A) (A) (A) (A)
                 (A) (A) (A) (A) (A) (A) (A) (A) (A) (A) (A) (A)
                 (A) (A) (A) (A) (A) (A) (A) (A) (A) (A) (A) (A)
                 (A) (A) (A) (A) (A) (A) (A) (A) (A) (A) (A) (A)
                 (A) (A) (A) (A) (A) (A) (A) (A) (A) (A) (A) (A)
                 (A) (A) (A) (A) (A) (A) (A) (A) (A) (A) (A) (A)
                 (A) (A) (A) (A) (A) (A) (A) (A) (A) (A) (A) (A)
                 (A) (A) (A) (A) (A) (A) (A) (A) (A) (A) (A) (A)
                 (A) (A) (A) (A) (A) (A) (A) (A) (A) (A) (A) (A)
                 (A) (A) (A) (A) (A) (A) (A) (A) (A) (A) (A) (A)
                 (A) (A) (A) (A) (A) (A) (A) (A) (A) (A) (A) (A)
                 (A) (A) (A) (A) (A) (A) (A) (A) (A) (A) (A) (A)
                 (A) (A) (A) (A) (A) (A) (A) (A) (A) (A) (A) (A)
                 (A) (A) (A) (A) (A) (A) (A) (A) (A) (A) (A) (A)
                 (A) (A) (A) (A) (A) (A) (A) (A) (A) (A) (A) (A)
                 (A) (A) (A) (A) (A) (A) (A) (A) (A) (A) (A) (A)
                 (A) (A) (A) (A) (A) (A) (A) (A) (A) (A) (A) (A)
                 (A) (A) (A) (A) (A) (A) (A) (A) (A) (A) (A) (A)
                 (A) (A) (A) (A) (A) (A) (A) (A) (A) (A) (A) (A)
                 (A) (A) (A) (A) (A) (A) (A) (A) (A) (A) (A) (A)
                 (A) (A) (A) (A) (A) (A) (A) (A) (A) (A) (A) (A)
                 (A) (A) (A) (A) (A) (A) (A) (A) (A) (A) (A) (A)
                 (A) (A) (A) (A) (A) (A) (A) (A) (A) (A) (A) (A)
                 (A) (A) (A) (A) (A) (A) (A) (A) (A) (A) (A) (A)
                 (A) (A) (A) (A) (A) (A) (A) (A) (A) (A) (A) (A)
                 (A) (A) (A) (A) (A) (A) (A) (A) (A) (A) (A) (A)
                 (A) (A) (A) (A) (A) (A) (A) (A) (A) (A) (A) (A)
                 (A) (A) (A) (A) (A) (A) (A) (A) (A) (A) (A) (A)
                 (A) (A) (A) (A) (A) (A) (A) (A) (A) (A) (A) (A)
                 (A) (A) (A) (A) (A) (A) (A) (A) (A) (A) (A) (A)
                 (A) (A) (A) (A) (A) (A) (A) (A) (A) (A) (A) (A)
                 (A) (A) (A) (A) (A) (A) (A) (A) (A) (A) (A) (A)
                 (A) (A) (A) (A) (A) (A) (A) (A) (A) (A) (A) (A)
                 (A) (A) (A) (A) (A) (A) (A) (A) (A) (A) (A) (A)
                 (A) (A) (A) (A) (A) (A) (A) (A) (A) (A) (A) (A)
                 (A) (A) (A) (A) (A) (A) (A) (A) (A) (A) (A) (A)
                 (A) (A) (A) (A) (A) (A) (A) (A) (A) (A) (A) (A)
                 (A) (A) (A) (A) (A) (A) (A) (A) (A) (A) (A) (A)
                 (A) (A) (A) (A) (A) (A) (A) (A) (A) (A) (A) (A)
                 (A) (A) (A) (A) (A) (A) (A) (A) (A) (A) (A) (A)
                 (A) (A) (A) (A) (A) (A) (A) (A) (A) (A) (A) (A)
                 (A) (A) (A) (A) (A) (A) (A) (A) (A) (A) (A) (A)
                 (A) (A) (A) (A) (A) (A) (A) (A) (A) (A) (A) (A)
                 (A) (A) (A) (A) (A) (A) (A) (A) (A) (A) (A) (A)
                 (A) (A) (A) (A) (A) (A) (A) (A) (A) (A) (A) (A)
                 (A) (A) (A) (A) (A) (A) (A) (A) (A) (A) (A) (A)
                 (A) (A) (A) (A) (A) (A) (A) (A) (A) (A) (A) (A)
                 (A) (A) (A) (A) (A) (A) (A) (A) (A) (A) (A) (A)
                 (A) (A) (A) (A) (A) (A) (A) (A) (A) (A) (A) (A)
                 (A) (A) (A) (A) (A) (A) (A) (A) (A) (A) (A) (A)
                 (A) (A) (A) (A) (A) (A) (A) (A) (A) (A) (A) (A)
                 (A) (A) (A) (A) (A) (A) (A) (A) (A) (A) (A) (A)
                 (A) (A) (A) (A) (A) (A) (A) (A) (A) (A) (A) (A)
                 (A) (A) (A) (A) (A) (A) (A) (A) (A) (A) (A) (A)
                 (A) (A) (A) (A) (A) (A) (A) (A) (A) (A) (A) (A)
                 (A) (A) (A) (A) (A) (A) (A) (A) (A) (A) (A) (A)
                 (A) (A) (A) (A) (A) (A) (A) (A) (A) (A) (A) (A)
                 (A) (A) (A) (A) (A) (A) (A) (A) (A) (A) (A) (A)
                 (A) (A) (A) (A) (A) (A) (A) (A) (A) (A) (A) (A)
                 (A) (A) (A) (A) (A) (A) (A) (A) (A) (A) (A) (A)
                 (A) (A) (A) (A) (A) (A) (A) (A) (A) (A) (A) (A)
                 (A) (A) (A) (A) (A) (A) (A) (A) (A) (A) (A) (A)
                 (A) (A) (A) (A) (A) (A) (A) (A) (A) (A) (A) (A)
                 (A) (A) (A) (A) (A) (A) (A) (A) (A) (A) (A) (A)
                 (A) (A) (A) (A) (A) (A) (A) (A) (A) (A) (A) (A)
                 (A) (A) (A) (A) (A) (A) (A) (A) (A) (A) (A) (A)
                 (A) (A) (A) (A) (A) (A) (A) (A) (A) (A) (A) (A)
                 (A) (A) (A) (A) (A) (A) (A) (A) (A) (A) (A) (A)
                 (A) (A) (A) (A) (A) (A) (A) (A) (A) (A) (A) (A)
                 (A) (A) (A) (A) (A) (A) (A) (A) (A) (A) (A) (A)
                 (A) (A) (A) (A) (A) (A) (A) (A) (A) (A) (A) (A)
                 (A) (A) (A) (A) (A) (A) (A) (A) (A) (A) (A) (A)
                 (A) (A) (A) (A) (A) (A) (A) (A) (A) (A) (A) (A)
                 (A) (A) (A) (A) (A) (A) (A) (A) (A) (A) (A) (A)
                 (A) (A) (A) (A) (A) (A) (A) (A) (A) (A) (A) (A)
                 (A) (A) (A) (A) (A) (A) (A) (A) (A) (A) (A) (A)
                 (A) (A) (A) (A) (A) (A) (A) (A) (A) (A) (A) (A)
                 (A) (A) (A) (A) (A) (A) (A) (A) (A) (A) (A) (A)
                 (A) (A) (A) (A) (A) (A) (A) (A) (A) (A) (A) (A)
                 (A) (A) (A) (A) (A) (A) (A) (A) (A) (A) (A) (A)
                 (A) (A) (A) (A) (A) (A) (A) (A) (A) (A) (A) (A)
                 (A) (A) (A) (A) (A) (A) (A) (A) (A) (A) (A) (A)
                 (A) (A) (A) (A) (A) (A) (A) (A) (A) (A) (A) (A)
                 (A) (A) (A) (A) (A) (A) (A) (A) (A) (A) (A) (A)
                 (A) (A) (A) (A) (A) (A) (A) (A) (A) (A) (A) (A)
                 (A) (A) (A) (A) (A) (A) (A) (A) (A) (A) (A) (A)
                 (A) (A) (A) (A) (A) (A) (A) (A) (A) (A) (A) (A)
                 (A) (A) (A) (A) (A) (A) (A) (A) (A) (A) (A) (A)
                 (A) (A) (A) (A) (A) (A) (A) (A) (A) (A) (A)
 The electronic state is 6-A.
 Alpha  occ. eigenvalues -- -256.48273 -30.31163 -26.12834 -26.12768 -26.12720
 Alpha  occ. eigenvalues --  -19.28803 -19.26308 -19.25707 -19.18776 -19.18566
 Alpha  occ. eigenvalues --  -14.46574 -14.41873 -14.40296 -14.39959 -14.39566
 Alpha  occ. eigenvalues --  -14.39245 -10.35922 -10.35560 -10.30094 -10.27991
 Alpha  occ. eigenvalues --  -10.27899 -10.27752 -10.27724 -10.27640 -10.27455
 Alpha  occ. eigenvalues --  -10.27134 -10.27120 -10.27080 -10.25965 -10.25671
 Alpha  occ. eigenvalues --  -10.25530 -10.25528 -10.25518 -10.25312 -10.25279
 Alpha  occ. eigenvalues --  -10.25134 -10.24990 -10.24905 -10.24830 -10.24812
 Alpha  occ. eigenvalues --  -10.24766 -10.24763 -10.24516 -10.24386 -10.24239
 Alpha  occ. eigenvalues --  -10.24221 -10.24207 -10.23652 -10.23645 -10.23496
 Alpha  occ. eigenvalues --  -10.22976 -10.22824 -10.22769 -10.22437  -3.73967
 Alpha  occ. eigenvalues --   -2.50179  -2.50051  -2.49889  -1.19297  -1.18946
 Alpha  occ. eigenvalues --   -1.13404  -1.11432  -1.05012  -1.04337  -1.04080
 Alpha  occ. eigenvalues --   -1.03324  -1.02963  -1.02281  -0.95974  -0.87443
 Alpha  occ. eigenvalues --   -0.86088  -0.85923  -0.85653  -0.85199  -0.84592
 Alpha  occ. eigenvalues --   -0.84318  -0.82837  -0.81667  -0.80940  -0.79671
 Alpha  occ. eigenvalues --   -0.78468  -0.78238  -0.76606  -0.74757  -0.74487
 Alpha  occ. eigenvalues --   -0.74310  -0.74027  -0.72616  -0.71505  -0.71079
 Alpha  occ. eigenvalues --   -0.69583  -0.69462  -0.68635  -0.67410  -0.67104
 Alpha  occ. eigenvalues --   -0.65786  -0.65532  -0.64966  -0.64419  -0.62239
 Alpha  occ. eigenvalues --   -0.62075  -0.60026  -0.59626  -0.59077  -0.58502
 Alpha  occ. eigenvalues --   -0.57863  -0.57176  -0.55799  -0.55693  -0.55231
 Alpha  occ. eigenvalues --   -0.55134  -0.54088  -0.53340  -0.52696  -0.52508
 Alpha  occ. eigenvalues --   -0.52190  -0.52102  -0.51791  -0.51174  -0.51133
 Alpha  occ. eigenvalues --   -0.50557  -0.49867  -0.49384  -0.49260  -0.49227
 Alpha  occ. eigenvalues --   -0.48894  -0.48427  -0.47978  -0.47736  -0.47689
 Alpha  occ. eigenvalues --   -0.47294  -0.47082  -0.46954  -0.46791  -0.46381
 Alpha  occ. eigenvalues --   -0.46216  -0.45677  -0.45440  -0.45412  -0.44660
 Alpha  occ. eigenvalues --   -0.44241  -0.44108  -0.44033  -0.44004  -0.43629
 Alpha  occ. eigenvalues --   -0.43544  -0.43451  -0.43344  -0.43008  -0.42870
 Alpha  occ. eigenvalues --   -0.42642  -0.42267  -0.41804  -0.41632  -0.41399
 Alpha  occ. eigenvalues --   -0.41024  -0.40750  -0.40517  -0.40122  -0.39936
 Alpha  occ. eigenvalues --   -0.39857  -0.39328  -0.39198  -0.38916  -0.38565
 Alpha  occ. eigenvalues --   -0.37943  -0.37479  -0.37094  -0.36164  -0.36150
 Alpha  occ. eigenvalues --   -0.35844  -0.35393  -0.34299  -0.34178  -0.34079
 Alpha  occ. eigenvalues --   -0.32874  -0.32399  -0.30687  -0.30390  -0.29194
 Alpha  occ. eigenvalues --   -0.29143  -0.28973  -0.27290  -0.26777  -0.26396
 Alpha  occ. eigenvalues --   -0.26101  -0.24724  -0.23298  -0.22388  -0.21700
 Alpha virt. eigenvalues --   -0.11711  -0.11419  -0.07859  -0.05502  -0.02449
 Alpha virt. eigenvalues --   -0.01101  -0.00956  -0.00432  -0.00095   0.02674
 Alpha virt. eigenvalues --    0.02776   0.03145   0.03241   0.03335   0.04087
 Alpha virt. eigenvalues --    0.04334   0.04560   0.05142   0.05452   0.05596
 Alpha virt. eigenvalues --    0.05838   0.06437   0.06670   0.06807   0.07136
 Alpha virt. eigenvalues --    0.07494   0.07507   0.07970   0.08218   0.08339
 Alpha virt. eigenvalues --    0.08928   0.09068   0.09552   0.09781   0.09998
 Alpha virt. eigenvalues --    0.10257   0.10638   0.10967   0.11131   0.11411
 Alpha virt. eigenvalues --    0.11536   0.11710   0.11923   0.12042   0.12393
 Alpha virt. eigenvalues --    0.12472   0.12648   0.12953   0.13070   0.13276
 Alpha virt. eigenvalues --    0.13628   0.13649   0.13676   0.13864   0.14278
 Alpha virt. eigenvalues --    0.14411   0.14665   0.14772   0.15212   0.15434
 Alpha virt. eigenvalues --    0.15829   0.15853   0.16026   0.16388   0.16797
 Alpha virt. eigenvalues --    0.16927   0.17225   0.17274   0.17614   0.17672
 Alpha virt. eigenvalues --    0.17902   0.18234   0.18386   0.18493   0.18729
 Alpha virt. eigenvalues --    0.18987   0.19322   0.19504   0.19566   0.20012
 Alpha virt. eigenvalues --    0.20190   0.20449   0.20535   0.20788   0.20820
 Alpha virt. eigenvalues --    0.21357   0.21443   0.21544   0.21671   0.22011
 Alpha virt. eigenvalues --    0.22061   0.22469   0.22636   0.22937   0.23133
 Alpha virt. eigenvalues --    0.23185   0.23584   0.23806   0.24015   0.24404
 Alpha virt. eigenvalues --    0.24566   0.24916   0.25093   0.25121   0.25278
 Alpha virt. eigenvalues --    0.25578   0.25634   0.25810   0.26113   0.26329
 Alpha virt. eigenvalues --    0.26590   0.26764   0.26881   0.27091   0.27481
 Alpha virt. eigenvalues --    0.27545   0.27815   0.27975   0.28156   0.28515
 Alpha virt. eigenvalues --    0.28756   0.28852   0.29189   0.29369   0.29539
 Alpha virt. eigenvalues --    0.29961   0.30518   0.30749   0.31160   0.31269
 Alpha virt. eigenvalues --    0.31348   0.31521   0.31867   0.32047   0.32141
 Alpha virt. eigenvalues --    0.32272   0.32682   0.33173   0.33459   0.33560
 Alpha virt. eigenvalues --    0.33800   0.34004   0.34118   0.34330   0.34780
 Alpha virt. eigenvalues --    0.35028   0.35228   0.35889   0.36127   0.36307
 Alpha virt. eigenvalues --    0.36376   0.36605   0.36787   0.37057   0.37331
 Alpha virt. eigenvalues --    0.37474   0.37691   0.37995   0.38172   0.38286
 Alpha virt. eigenvalues --    0.38575   0.38894   0.39024   0.39312   0.39344
 Alpha virt. eigenvalues --    0.39671   0.39811   0.39911   0.40180   0.40386
 Alpha virt. eigenvalues --    0.40621   0.40802   0.41042   0.41401   0.41430
 Alpha virt. eigenvalues --    0.41601   0.42077   0.42129   0.42351   0.42369
 Alpha virt. eigenvalues --    0.42639   0.42817   0.43081   0.43273   0.43369
 Alpha virt. eigenvalues --    0.43520   0.43751   0.43764   0.43970   0.44245
 Alpha virt. eigenvalues --    0.44632   0.44826   0.45142   0.45260   0.45402
 Alpha virt. eigenvalues --    0.45559   0.45593   0.45889   0.46289   0.46407
 Alpha virt. eigenvalues --    0.46577   0.46860   0.47023   0.47103   0.47263
 Alpha virt. eigenvalues --    0.47417   0.47637   0.47644   0.47979   0.48147
 Alpha virt. eigenvalues --    0.48216   0.48508   0.48982   0.49207   0.49479
 Alpha virt. eigenvalues --    0.49597   0.49673   0.49713   0.49950   0.50111
 Alpha virt. eigenvalues --    0.50363   0.50497   0.50524   0.50847   0.51035
 Alpha virt. eigenvalues --    0.51297   0.51358   0.51548   0.51859   0.52137
 Alpha virt. eigenvalues --    0.52168   0.52256   0.52366   0.52597   0.52832
 Alpha virt. eigenvalues --    0.53065   0.53205   0.53487   0.53676   0.53831
 Alpha virt. eigenvalues --    0.54226   0.54383   0.54625   0.54895   0.55136
 Alpha virt. eigenvalues --    0.55283   0.55726   0.55797   0.56060   0.56430
 Alpha virt. eigenvalues --    0.56448   0.56908   0.57015   0.57108   0.57328
 Alpha virt. eigenvalues --    0.57528   0.57666   0.57903   0.58306   0.58599
 Alpha virt. eigenvalues --    0.58819   0.58945   0.59495   0.59628   0.59797
 Alpha virt. eigenvalues --    0.60127   0.60240   0.60706   0.61082   0.61254
 Alpha virt. eigenvalues --    0.61409   0.61564   0.61808   0.62510   0.62618
 Alpha virt. eigenvalues --    0.62730   0.63032   0.63202   0.63573   0.63656
 Alpha virt. eigenvalues --    0.63882   0.64013   0.64466   0.64575   0.64839
 Alpha virt. eigenvalues --    0.65174   0.65421   0.65782   0.66126   0.66323
 Alpha virt. eigenvalues --    0.66489   0.66884   0.67061   0.67419   0.67591
 Alpha virt. eigenvalues --    0.67689   0.68291   0.68368   0.68621   0.68824
 Alpha virt. eigenvalues --    0.69235   0.69401   0.69608   0.70184   0.70343
 Alpha virt. eigenvalues --    0.70472   0.70920   0.71143   0.71294   0.71798
 Alpha virt. eigenvalues --    0.71996   0.72758   0.72908   0.73328   0.73449
 Alpha virt. eigenvalues --    0.73614   0.73891   0.74472   0.74741   0.74879
 Alpha virt. eigenvalues --    0.75179   0.75311   0.75381   0.75677   0.76024
 Alpha virt. eigenvalues --    0.76557   0.76709   0.76853   0.77361   0.77518
 Alpha virt. eigenvalues --    0.77731   0.78076   0.78439   0.78898   0.79021
 Alpha virt. eigenvalues --    0.79309   0.79502   0.80072   0.80391   0.80654
 Alpha virt. eigenvalues --    0.80937   0.81190   0.81274   0.81356   0.81852
 Alpha virt. eigenvalues --    0.82329   0.82581   0.83097   0.83282   0.83697
 Alpha virt. eigenvalues --    0.83890   0.84437   0.84842   0.85273   0.85494
 Alpha virt. eigenvalues --    0.85786   0.86128   0.86260   0.86571   0.86852
 Alpha virt. eigenvalues --    0.87476   0.87686   0.87999   0.88370   0.88686
 Alpha virt. eigenvalues --    0.88837   0.89424   0.89942   0.90278   0.90454
 Alpha virt. eigenvalues --    0.90763   0.91235   0.91551   0.91776   0.91964
 Alpha virt. eigenvalues --    0.92164   0.92832   0.93222   0.93541   0.93595
 Alpha virt. eigenvalues --    0.93770   0.94297   0.94608   0.94857   0.95204
 Alpha virt. eigenvalues --    0.95585   0.95871   0.96165   0.96314   0.96678
 Alpha virt. eigenvalues --    0.97184   0.97506   0.97664   0.98076   0.98148
 Alpha virt. eigenvalues --    0.98475   0.98712   0.99049   0.99212   0.99580
 Alpha virt. eigenvalues --    0.99977   0.99994   1.00340   1.00874   1.00976
 Alpha virt. eigenvalues --    1.01064   1.01472   1.01703   1.02322   1.02539
 Alpha virt. eigenvalues --    1.02872   1.03060   1.03393   1.03615   1.03794
 Alpha virt. eigenvalues --    1.04125   1.04697   1.04837   1.05168   1.05796
 Alpha virt. eigenvalues --    1.05854   1.06269   1.06660   1.06667   1.07112
 Alpha virt. eigenvalues --    1.07207   1.07725   1.08194   1.08547   1.08939
 Alpha virt. eigenvalues --    1.09104   1.09409   1.09821   1.09962   1.10454
 Alpha virt. eigenvalues --    1.10533   1.11098   1.11625   1.12095   1.12429
 Alpha virt. eigenvalues --    1.12522   1.12922   1.13151   1.13363   1.13700
 Alpha virt. eigenvalues --    1.13879   1.14460   1.15020   1.15347   1.15880
 Alpha virt. eigenvalues --    1.16328   1.16517   1.16674   1.17522   1.17824
 Alpha virt. eigenvalues --    1.18030   1.18218   1.19164   1.19601   1.19829
 Alpha virt. eigenvalues --    1.20557   1.20905   1.21344   1.21415   1.21975
 Alpha virt. eigenvalues --    1.22159   1.22362   1.22990   1.23348   1.23788
 Alpha virt. eigenvalues --    1.24007   1.24161   1.24474   1.25007   1.25262
 Alpha virt. eigenvalues --    1.25671   1.25969   1.26579   1.26701   1.27340
 Alpha virt. eigenvalues --    1.27747   1.28337   1.28525   1.28882   1.29469
 Alpha virt. eigenvalues --    1.29664   1.29812   1.30914   1.31166   1.31397
 Alpha virt. eigenvalues --    1.32145   1.32424   1.32908   1.33097   1.33249
 Alpha virt. eigenvalues --    1.33543   1.34068   1.34484   1.34988   1.35157
 Alpha virt. eigenvalues --    1.35474   1.35929   1.36361   1.36952   1.37214
 Alpha virt. eigenvalues --    1.37453   1.38412   1.38732   1.39679   1.39829
 Alpha virt. eigenvalues --    1.40127   1.40247   1.40598   1.41347   1.41581
 Alpha virt. eigenvalues --    1.41941   1.42085   1.42615   1.43048   1.43265
 Alpha virt. eigenvalues --    1.43795   1.44049   1.44319   1.44558   1.44827
 Alpha virt. eigenvalues --    1.45195   1.45345   1.45573   1.45900   1.46525
 Alpha virt. eigenvalues --    1.46757   1.46966   1.47214   1.47610   1.47766
 Alpha virt. eigenvalues --    1.48128   1.48549   1.48870   1.49431   1.49454
 Alpha virt. eigenvalues --    1.49635   1.50090   1.50426   1.50800   1.51182
 Alpha virt. eigenvalues --    1.51409   1.51634   1.51750   1.52137   1.52593
 Alpha virt. eigenvalues --    1.53114   1.53308   1.53384   1.53603   1.53960
 Alpha virt. eigenvalues --    1.54295   1.54691   1.54797   1.54944   1.55477
 Alpha virt. eigenvalues --    1.55669   1.55880   1.56172   1.56798   1.56882
 Alpha virt. eigenvalues --    1.57587   1.57678   1.57974   1.58177   1.58486
 Alpha virt. eigenvalues --    1.58748   1.59044   1.59338   1.59422   1.59737
 Alpha virt. eigenvalues --    1.60087   1.60287   1.60481   1.60783   1.60864
 Alpha virt. eigenvalues --    1.61164   1.61500   1.61787   1.62031   1.62154
 Alpha virt. eigenvalues --    1.62478   1.62786   1.62870   1.63479   1.63664
 Alpha virt. eigenvalues --    1.63773   1.64062   1.64317   1.65023   1.65163
 Alpha virt. eigenvalues --    1.65381   1.65543   1.66150   1.66756   1.66972
 Alpha virt. eigenvalues --    1.67406   1.67668   1.67883   1.68022   1.68296
 Alpha virt. eigenvalues --    1.68594   1.69005   1.69554   1.69726   1.70018
 Alpha virt. eigenvalues --    1.70506   1.70762   1.71004   1.71468   1.71960
 Alpha virt. eigenvalues --    1.72169   1.72551   1.72677   1.72798   1.73299
 Alpha virt. eigenvalues --    1.73572   1.73860   1.74334   1.75028   1.75538
 Alpha virt. eigenvalues --    1.75753   1.76706   1.76950   1.77610   1.77854
 Alpha virt. eigenvalues --    1.78146   1.78480   1.78884   1.79477   1.79762
 Alpha virt. eigenvalues --    1.80168   1.80568   1.80878   1.81095   1.81447
 Alpha virt. eigenvalues --    1.81750   1.82378   1.82753   1.83091   1.83285
 Alpha virt. eigenvalues --    1.83598   1.83800   1.84382   1.84784   1.85279
 Alpha virt. eigenvalues --    1.85536   1.85880   1.86292   1.86716   1.86989
 Alpha virt. eigenvalues --    1.87449   1.87908   1.88067   1.88427   1.88715
 Alpha virt. eigenvalues --    1.89327   1.89826   1.90106   1.90211   1.90839
 Alpha virt. eigenvalues --    1.90981   1.91506   1.91891   1.92281   1.92334
 Alpha virt. eigenvalues --    1.92841   1.92973   1.93411   1.93589   1.94703
 Alpha virt. eigenvalues --    1.94840   1.95190   1.95338   1.95860   1.95942
 Alpha virt. eigenvalues --    1.96333   1.96467   1.96695   1.97411   1.97778
 Alpha virt. eigenvalues --    1.98425   1.98681   1.99013   1.99330   1.99408
 Alpha virt. eigenvalues --    1.99516   1.99954   2.00278   2.00939   2.01319
 Alpha virt. eigenvalues --    2.01435   2.01988   2.02544   2.03146   2.03273
 Alpha virt. eigenvalues --    2.03457   2.03914   2.03951   2.04458   2.04965
 Alpha virt. eigenvalues --    2.05291   2.05455   2.05837   2.05959   2.06662
 Alpha virt. eigenvalues --    2.06902   2.07135   2.07244   2.07429   2.08395
 Alpha virt. eigenvalues --    2.09184   2.09558   2.09971   2.10185   2.11031
 Alpha virt. eigenvalues --    2.12066   2.12136   2.12452   2.12689   2.13028
 Alpha virt. eigenvalues --    2.13444   2.14068   2.14265   2.14526   2.14847
 Alpha virt. eigenvalues --    2.15042   2.15294   2.15842   2.16146   2.16579
 Alpha virt. eigenvalues --    2.16904   2.17153   2.17601   2.18136   2.18565
 Alpha virt. eigenvalues --    2.18894   2.19035   2.20020   2.20029   2.20500
 Alpha virt. eigenvalues --    2.20645   2.21233   2.21528   2.21781   2.22583
 Alpha virt. eigenvalues --    2.23047   2.23141   2.23497   2.24275   2.24380
 Alpha virt. eigenvalues --    2.25199   2.25591   2.25763   2.26269   2.26622
 Alpha virt. eigenvalues --    2.27327   2.27714   2.27853   2.28551   2.29073
 Alpha virt. eigenvalues --    2.29158   2.29654   2.30189   2.30600   2.31263
 Alpha virt. eigenvalues --    2.31575   2.31722   2.32506   2.32790   2.33101
 Alpha virt. eigenvalues --    2.33317   2.34001   2.34252   2.35259   2.35884
 Alpha virt. eigenvalues --    2.35957   2.36540   2.36892   2.37204   2.37461
 Alpha virt. eigenvalues --    2.37847   2.38478   2.38763   2.38850   2.39380
 Alpha virt. eigenvalues --    2.39592   2.40118   2.40576   2.40788   2.41259
 Alpha virt. eigenvalues --    2.41673   2.41804   2.42747   2.42886   2.43228
 Alpha virt. eigenvalues --    2.43663   2.43927   2.44065   2.44839   2.45030
 Alpha virt. eigenvalues --    2.45418   2.45598   2.46008   2.46883   2.47240
 Alpha virt. eigenvalues --    2.47495   2.47812   2.48170   2.48872   2.49000
 Alpha virt. eigenvalues --    2.49628   2.50112   2.50348   2.50508   2.50725
 Alpha virt. eigenvalues --    2.51337   2.51575   2.52035   2.52299   2.52758
 Alpha virt. eigenvalues --    2.53060   2.53329   2.53720   2.54154   2.54451
 Alpha virt. eigenvalues --    2.54886   2.54976   2.55393   2.55704   2.55876
 Alpha virt. eigenvalues --    2.56338   2.56776   2.57354   2.57488   2.57764
 Alpha virt. eigenvalues --    2.57957   2.58214   2.58456   2.58774   2.58914
 Alpha virt. eigenvalues --    2.59461   2.59986   2.60262   2.60552   2.60923
 Alpha virt. eigenvalues --    2.60996   2.61295   2.61552   2.61580   2.62063
 Alpha virt. eigenvalues --    2.62727   2.63382   2.63766   2.63953   2.64368
 Alpha virt. eigenvalues --    2.64562   2.65147   2.65266   2.65637   2.65948
 Alpha virt. eigenvalues --    2.66172   2.66330   2.66813   2.66984   2.67661
 Alpha virt. eigenvalues --    2.68096   2.68141   2.68322   2.68652   2.69006
 Alpha virt. eigenvalues --    2.69184   2.70036   2.70317   2.70700   2.70813
 Alpha virt. eigenvalues --    2.71426   2.71591   2.71649   2.71882   2.72245
 Alpha virt. eigenvalues --    2.72767   2.72895   2.73482   2.74202   2.74582
 Alpha virt. eigenvalues --    2.74836   2.75272   2.75402   2.75636   2.76240
 Alpha virt. eigenvalues --    2.76638   2.77097   2.77456   2.77555   2.78046
 Alpha virt. eigenvalues --    2.78619   2.79315   2.79585   2.79867   2.80412
 Alpha virt. eigenvalues --    2.80587   2.80670   2.81127   2.81472   2.82012
 Alpha virt. eigenvalues --    2.82243   2.82617   2.82919   2.83535   2.83796
 Alpha virt. eigenvalues --    2.84102   2.84479   2.84738   2.84859   2.85175
 Alpha virt. eigenvalues --    2.86255   2.86310   2.86804   2.87007   2.87101
 Alpha virt. eigenvalues --    2.87486   2.87826   2.88293   2.88519   2.88846
 Alpha virt. eigenvalues --    2.89147   2.89654   2.89735   2.89828   2.90479
 Alpha virt. eigenvalues --    2.90509   2.91086   2.91491   2.91644   2.92042
 Alpha virt. eigenvalues --    2.92382   2.93058   2.93240   2.93864   2.94133
 Alpha virt. eigenvalues --    2.94238   2.94519   2.95070   2.95380   2.95513
 Alpha virt. eigenvalues --    2.95746   2.95871   2.96397   2.96745   2.97126
 Alpha virt. eigenvalues --    2.97508   2.97818   2.97956   2.98167   2.98367
 Alpha virt. eigenvalues --    2.98768   2.99238   2.99601   2.99814   2.99936
 Alpha virt. eigenvalues --    3.00904   3.01200   3.01331   3.01368   3.01953
 Alpha virt. eigenvalues --    3.02401   3.02484   3.02973   3.03156   3.03374
 Alpha virt. eigenvalues --    3.03859   3.04047   3.04439   3.04769   3.05063
 Alpha virt. eigenvalues --    3.05516   3.05906   3.06401   3.06615   3.06814
 Alpha virt. eigenvalues --    3.07202   3.07454   3.07742   3.08313   3.08387
 Alpha virt. eigenvalues --    3.08616   3.08745   3.09198   3.09402   3.09774
 Alpha virt. eigenvalues --    3.10070   3.10469   3.10523   3.10757   3.11094
 Alpha virt. eigenvalues --    3.11421   3.11787   3.12320   3.12395   3.12717
 Alpha virt. eigenvalues --    3.13119   3.13314   3.13425   3.13742   3.14092
 Alpha virt. eigenvalues --    3.14420   3.14543   3.15009   3.15217   3.15349
 Alpha virt. eigenvalues --    3.15641   3.16166   3.16401   3.16831   3.16944
 Alpha virt. eigenvalues --    3.17161   3.17255   3.17385   3.17889   3.18267
 Alpha virt. eigenvalues --    3.18394   3.18750   3.19109   3.19350   3.19468
 Alpha virt. eigenvalues --    3.19857   3.20379   3.20812   3.21067   3.21235
 Alpha virt. eigenvalues --    3.21406   3.21603   3.21938   3.22291   3.22589
 Alpha virt. eigenvalues --    3.22785   3.23129   3.23323   3.23555   3.23860
 Alpha virt. eigenvalues --    3.24116   3.24274   3.24688   3.25330   3.25427
 Alpha virt. eigenvalues --    3.25788   3.26071   3.26269   3.26678   3.26907
 Alpha virt. eigenvalues --    3.27128   3.27207   3.27369   3.27718   3.28127
 Alpha virt. eigenvalues --    3.28339   3.28612   3.28654   3.29172   3.29259
 Alpha virt. eigenvalues --    3.29653   3.30012   3.30355   3.30407   3.31152
 Alpha virt. eigenvalues --    3.31175   3.31341   3.31642   3.31952   3.32326
 Alpha virt. eigenvalues --    3.32674   3.32956   3.33162   3.33198   3.33796
 Alpha virt. eigenvalues --    3.33846   3.34443   3.34573   3.34713   3.34955
 Alpha virt. eigenvalues --    3.35334   3.35465   3.35708   3.35781   3.35977
 Alpha virt. eigenvalues --    3.36157   3.36354   3.36582   3.36840   3.37075
 Alpha virt. eigenvalues --    3.37253   3.37801   3.37961   3.38062   3.38218
 Alpha virt. eigenvalues --    3.38601   3.39207   3.39342   3.39479   3.39718
 Alpha virt. eigenvalues --    3.40397   3.40672   3.41185   3.41452   3.41594
 Alpha virt. eigenvalues --    3.41919   3.42232   3.42611   3.43023   3.43302
 Alpha virt. eigenvalues --    3.43969   3.44592   3.44748   3.45138   3.45319
 Alpha virt. eigenvalues --    3.45630   3.45635   3.45947   3.46437   3.46796
 Alpha virt. eigenvalues --    3.47269   3.47610   3.48238   3.48390   3.48630
 Alpha virt. eigenvalues --    3.49172   3.49661   3.49916   3.50232   3.50483
 Alpha virt. eigenvalues --    3.50991   3.51368   3.51517   3.51934   3.52418
 Alpha virt. eigenvalues --    3.52909   3.53152   3.53791   3.53910   3.54228
 Alpha virt. eigenvalues --    3.54547   3.54879   3.55271   3.55564   3.56210
 Alpha virt. eigenvalues --    3.56498   3.56621   3.56891   3.57478   3.58025
 Alpha virt. eigenvalues --    3.58274   3.58539   3.59308   3.59913   3.60450
 Alpha virt. eigenvalues --    3.60619   3.60833   3.61189   3.61700   3.61956
 Alpha virt. eigenvalues --    3.62478   3.62962   3.63236   3.63818   3.63976
 Alpha virt. eigenvalues --    3.64321   3.64905   3.65313   3.65563   3.65931
 Alpha virt. eigenvalues --    3.65998   3.66494   3.66848   3.67131   3.67556
 Alpha virt. eigenvalues --    3.67690   3.67970   3.68731   3.68803   3.69285
 Alpha virt. eigenvalues --    3.69819   3.70149   3.70426   3.70773   3.71145
 Alpha virt. eigenvalues --    3.71197   3.71868   3.72291   3.72533   3.72804
 Alpha virt. eigenvalues --    3.73100   3.73815   3.74200   3.74683   3.74866
 Alpha virt. eigenvalues --    3.75118   3.75593   3.75907   3.76564   3.76896
 Alpha virt. eigenvalues --    3.77284   3.77732   3.78221   3.78609   3.78989
 Alpha virt. eigenvalues --    3.79172   3.79603   3.80210   3.80877   3.81485
 Alpha virt. eigenvalues --    3.81560   3.82574   3.83058   3.83177   3.83433
 Alpha virt. eigenvalues --    3.84113   3.84425   3.85543   3.85924   3.86455
 Alpha virt. eigenvalues --    3.86750   3.87586   3.87898   3.88019   3.88808
 Alpha virt. eigenvalues --    3.89614   3.90281   3.90674   3.90948   3.91002
 Alpha virt. eigenvalues --    3.91539   3.92011   3.92352   3.92800   3.92961
 Alpha virt. eigenvalues --    3.93957   3.94137   3.94710   3.95064   3.95579
 Alpha virt. eigenvalues --    3.95597   3.96158   3.96951   3.97080   3.97277
 Alpha virt. eigenvalues --    3.98174   3.98444   3.98514   3.99294   4.00111
 Alpha virt. eigenvalues --    4.00320   4.01317   4.01700   4.02453   4.02748
 Alpha virt. eigenvalues --    4.03168   4.03916   4.04143   4.04730   4.05596
 Alpha virt. eigenvalues --    4.06046   4.06518   4.06713   4.07572   4.07926
 Alpha virt. eigenvalues --    4.08305   4.08925   4.09283   4.10125   4.10630
 Alpha virt. eigenvalues --    4.10936   4.11308   4.11868   4.12607   4.12918
 Alpha virt. eigenvalues --    4.13584   4.14072   4.14187   4.14700   4.14996
 Alpha virt. eigenvalues --    4.15197   4.16183   4.16855   4.17110   4.18158
 Alpha virt. eigenvalues --    4.18467   4.18756   4.19063   4.19806   4.20784
 Alpha virt. eigenvalues --    4.21252   4.21577   4.22167   4.22471   4.22988
 Alpha virt. eigenvalues --    4.23347   4.23578   4.24173   4.24669   4.24993
 Alpha virt. eigenvalues --    4.25286   4.25879   4.26960   4.27602   4.28418
 Alpha virt. eigenvalues --    4.29223   4.29865   4.30689   4.30758   4.30925
 Alpha virt. eigenvalues --    4.32499   4.33167   4.33722   4.33971   4.34509
 Alpha virt. eigenvalues --    4.35162   4.35417   4.36175   4.36915   4.37866
 Alpha virt. eigenvalues --    4.38169   4.38406   4.39008   4.40021   4.40583
 Alpha virt. eigenvalues --    4.40661   4.41087   4.41518   4.41719   4.42323
 Alpha virt. eigenvalues --    4.43037   4.43404   4.43726   4.44434   4.44799
 Alpha virt. eigenvalues --    4.45894   4.47038   4.48090   4.48280   4.48744
 Alpha virt. eigenvalues --    4.49146   4.50681   4.50935   4.52807   4.53530
 Alpha virt. eigenvalues --    4.53784   4.54031   4.55244   4.55466   4.56345
 Alpha virt. eigenvalues --    4.56893   4.57777   4.58440   4.59022   4.60590
 Alpha virt. eigenvalues --    4.61128   4.62300   4.63476   4.63714   4.63826
 Alpha virt. eigenvalues --    4.64299   4.65166   4.65833   4.65970   4.66899
 Alpha virt. eigenvalues --    4.67953   4.67993   4.68628   4.70169   4.70444
 Alpha virt. eigenvalues --    4.70782   4.71069   4.71714   4.73311   4.74807
 Alpha virt. eigenvalues --    4.74841   4.75370   4.76241   4.76594   4.77194
 Alpha virt. eigenvalues --    4.78316   4.78825   4.79049   4.79997   4.80921
 Alpha virt. eigenvalues --    4.81576   4.82536   4.83445   4.83904   4.84411
 Alpha virt. eigenvalues --    4.85468   4.85764   4.86883   4.87634   4.88291
 Alpha virt. eigenvalues --    4.89021   4.89859   4.90537   4.91235   4.92123
 Alpha virt. eigenvalues --    4.92190   4.93506   4.94146   4.94846   4.95548
 Alpha virt. eigenvalues --    4.96617   4.97196   4.97419   4.98544   4.99040
 Alpha virt. eigenvalues --    4.99962   5.01046   5.01862   5.02912   5.03987
 Alpha virt. eigenvalues --    5.05586   5.05799   5.06466   5.07127   5.07873
 Alpha virt. eigenvalues --    5.08526   5.08960   5.09341   5.10831   5.11544
 Alpha virt. eigenvalues --    5.12112   5.13031   5.14188   5.14720   5.15295
 Alpha virt. eigenvalues --    5.16172   5.16954   5.17805   5.18223   5.18257
 Alpha virt. eigenvalues --    5.18528   5.18913   5.19373   5.21145   5.21707
 Alpha virt. eigenvalues --    5.22343   5.22595   5.23531   5.24670   5.25862
 Alpha virt. eigenvalues --    5.26739   5.27157   5.27777   5.28228   5.29161
 Alpha virt. eigenvalues --    5.29627   5.30948   5.31618   5.35055   5.36734
 Alpha virt. eigenvalues --    5.37058   5.37485   5.38433   5.38501   5.39182
 Alpha virt. eigenvalues --    5.40064   5.40779   5.41027   5.42325   5.43296
 Alpha virt. eigenvalues --    5.44125   5.45099   5.46307   5.46896   5.47970
 Alpha virt. eigenvalues --    5.48151   5.49580   5.51381   5.51609   5.53210
 Alpha virt. eigenvalues --    5.54875   5.55704   5.57509   5.58899   5.59122
 Alpha virt. eigenvalues --    5.60220   5.60354   5.60995   5.62609   5.63596
 Alpha virt. eigenvalues --    5.64658   5.64900   5.65447   5.67530   5.68099
 Alpha virt. eigenvalues --    5.69007   5.70612   5.70907   5.72922   5.73400
 Alpha virt. eigenvalues --    5.75592   5.76474   5.78515   5.80012   5.81593
 Alpha virt. eigenvalues --    5.83251   5.85218   5.86897   5.87292   5.90011
 Alpha virt. eigenvalues --    5.93802   5.95522   5.97017   5.98240   6.00058
 Alpha virt. eigenvalues --    6.01354   6.03962   6.07064   6.08230   6.09586
 Alpha virt. eigenvalues --    6.10940   6.11966   6.12595   6.13044   6.15755
 Alpha virt. eigenvalues --    6.22073   6.22280   6.23021   6.25500   6.27021
 Alpha virt. eigenvalues --    6.31783   6.32880   6.38073   6.38562   6.39153
 Alpha virt. eigenvalues --    6.40389   6.41251   6.43818   6.47810   6.48052
 Alpha virt. eigenvalues --    6.48159   6.49257   6.52450   6.52918   6.54071
 Alpha virt. eigenvalues --    6.54354   6.64613   6.67546   6.77679   6.81751
 Alpha virt. eigenvalues --    6.82080   6.84489   6.85824   6.97668   6.98851
 Alpha virt. eigenvalues --    6.99355   7.02275   7.09047   7.11007   7.11986
 Alpha virt. eigenvalues --    7.16397   7.17808   7.24228   7.26915   7.33441
 Alpha virt. eigenvalues --   22.32844  22.36894  22.46273  22.51477  22.52438
 Alpha virt. eigenvalues --   22.53877  22.54122  22.60550  22.62782  22.71614
 Alpha virt. eigenvalues --   22.73423  22.75728  22.82483  22.87849  22.92359
 Alpha virt. eigenvalues --   22.93346  22.95407  22.98246  23.02872  23.05277
 Alpha virt. eigenvalues --   23.09608  23.14771  23.20505  23.33565  23.35726
 Alpha virt. eigenvalues --   23.36417  23.42275  23.46543  23.48493  23.53081
 Alpha virt. eigenvalues --   23.55874  23.59523  23.72065  23.76299  23.79527
 Alpha virt. eigenvalues --   23.90938  23.94071  24.03536  32.50298  32.78806
 Alpha virt. eigenvalues --   32.93411  33.01940  33.08049  33.15461  43.92720
 Alpha virt. eigenvalues --   43.96089  43.99197  44.00543  44.17654
  Beta  occ. eigenvalues -- -256.48126 -30.21246 -26.04485 -26.04449 -26.04380
  Beta  occ. eigenvalues --  -19.28506 -19.26308 -19.25707 -19.18776 -19.18566
  Beta  occ. eigenvalues --  -14.46563 -14.41579 -14.40010 -14.39659 -14.39238
  Beta  occ. eigenvalues --  -14.38939 -10.35922 -10.35559 -10.30073 -10.27971
  Beta  occ. eigenvalues --  -10.27894 -10.27723 -10.27715 -10.27616 -10.27447
  Beta  occ. eigenvalues --  -10.27120 -10.27111 -10.27073 -10.25977 -10.25619
  Beta  occ. eigenvalues --  -10.25614 -10.25520 -10.25478 -10.25280 -10.25278
  Beta  occ. eigenvalues --  -10.25122 -10.24932 -10.24912 -10.24846 -10.24814
  Beta  occ. eigenvalues --  -10.24744 -10.24630 -10.24494 -10.24360 -10.24268
  Beta  occ. eigenvalues --  -10.24238 -10.24206 -10.23650 -10.23643 -10.23495
  Beta  occ. eigenvalues --  -10.22971 -10.22822 -10.22769 -10.22435  -3.50403
  Beta  occ. eigenvalues --   -2.24898  -2.24709  -2.24610  -1.19297  -1.18946
  Beta  occ. eigenvalues --   -1.12774  -1.11262  -1.05012  -1.04336  -1.03751
  Beta  occ. eigenvalues --   -1.03002  -1.02631  -1.01936  -0.95663  -0.87389
  Beta  occ. eigenvalues --   -0.85972  -0.85788  -0.85539  -0.85065  -0.84506
  Beta  occ. eigenvalues --   -0.84221  -0.82771  -0.81558  -0.80854  -0.79611
  Beta  occ. eigenvalues --   -0.78422  -0.78196  -0.76519  -0.74670  -0.74409
  Beta  occ. eigenvalues --   -0.74228  -0.73859  -0.72511  -0.71407  -0.71014
  Beta  occ. eigenvalues --   -0.69506  -0.69406  -0.68294  -0.67343  -0.67042
  Beta  occ. eigenvalues --   -0.65612  -0.65327  -0.64809  -0.63859  -0.62148
  Beta  occ. eigenvalues --   -0.61775  -0.59511  -0.59425  -0.58337  -0.57609
  Beta  occ. eigenvalues --   -0.56952  -0.55629  -0.55515  -0.55216  -0.54793
  Beta  occ. eigenvalues --   -0.54088  -0.53571  -0.52798  -0.52396  -0.52105
  Beta  occ. eigenvalues --   -0.51828  -0.51661  -0.51096  -0.50565  -0.50380
  Beta  occ. eigenvalues --   -0.49266  -0.48563  -0.48508  -0.48323  -0.47878
  Beta  occ. eigenvalues --   -0.47730  -0.47405  -0.47158  -0.46930  -0.46549
  Beta  occ. eigenvalues --   -0.46246  -0.46132  -0.45667  -0.45477  -0.44613
  Beta  occ. eigenvalues --   -0.44503  -0.44298  -0.44150  -0.44011  -0.43970
  Beta  occ. eigenvalues --   -0.43589  -0.43544  -0.43336  -0.43099  -0.42868
  Beta  occ. eigenvalues --   -0.42813  -0.42400  -0.42051  -0.41938  -0.41442
  Beta  occ. eigenvalues --   -0.41107  -0.40984  -0.40767  -0.40115  -0.40012
  Beta  occ. eigenvalues --   -0.39836  -0.39645  -0.39429  -0.39089  -0.38669
  Beta  occ. eigenvalues --   -0.38174  -0.37887  -0.37633  -0.37276  -0.36191
  Beta  occ. eigenvalues --   -0.35999  -0.35910  -0.35727  -0.34704  -0.34215
  Beta  occ. eigenvalues --   -0.34077  -0.33469  -0.32762  -0.32306  -0.30590
  Beta  occ. eigenvalues --   -0.30363  -0.29143  -0.29121  -0.27002  -0.26410
  Beta  occ. eigenvalues --   -0.26067  -0.24695  -0.23138  -0.22350  -0.21681
  Beta virt. eigenvalues --   -0.13297  -0.12621  -0.11647  -0.10412  -0.10062
  Beta virt. eigenvalues --   -0.07556  -0.05305  -0.04936  -0.04484  -0.02325
  Beta virt. eigenvalues --   -0.01064  -0.00854   0.00053   0.00338   0.02720
  Beta virt. eigenvalues --    0.03084   0.03189   0.03297   0.03519   0.04202
  Beta virt. eigenvalues --    0.04395   0.04592   0.05183   0.05472   0.05810
  Beta virt. eigenvalues --    0.06062   0.06540   0.06796   0.06901   0.07172
  Beta virt. eigenvalues --    0.07543   0.07586   0.08044   0.08273   0.08373
  Beta virt. eigenvalues --    0.09021   0.09098   0.09589   0.09872   0.10047
  Beta virt. eigenvalues --    0.10321   0.10684   0.10998   0.11266   0.11481
  Beta virt. eigenvalues --    0.11671   0.11760   0.11960   0.12067   0.12483
  Beta virt. eigenvalues --    0.12578   0.12685   0.13028   0.13119   0.13322
  Beta virt. eigenvalues --    0.13673   0.13710   0.13723   0.13916   0.14325
  Beta virt. eigenvalues --    0.14474   0.14710   0.14804   0.15261   0.15465
  Beta virt. eigenvalues --    0.15896   0.15898   0.16091   0.16421   0.16841
  Beta virt. eigenvalues --    0.17020   0.17287   0.17339   0.17687   0.17746
  Beta virt. eigenvalues --    0.17974   0.18282   0.18443   0.18598   0.18832
  Beta virt. eigenvalues --    0.19080   0.19381   0.19576   0.19682   0.20143
  Beta virt. eigenvalues --    0.20280   0.20582   0.20645   0.20889   0.21013
  Beta virt. eigenvalues --    0.21479   0.21561   0.21707   0.22003   0.22066
  Beta virt. eigenvalues --    0.22265   0.22591   0.22714   0.23153   0.23238
  Beta virt. eigenvalues --    0.23445   0.23736   0.23960   0.24173   0.24558
  Beta virt. eigenvalues --    0.24661   0.25014   0.25181   0.25369   0.25484
  Beta virt. eigenvalues --    0.25635   0.25831   0.25868   0.26170   0.26406
  Beta virt. eigenvalues --    0.26774   0.26888   0.27053   0.27233   0.27572
  Beta virt. eigenvalues --    0.27861   0.28093   0.28256   0.28337   0.28743
  Beta virt. eigenvalues --    0.28890   0.29041   0.29277   0.29637   0.29774
  Beta virt. eigenvalues --    0.30056   0.30635   0.30905   0.31291   0.31442
  Beta virt. eigenvalues --    0.31613   0.31895   0.32091   0.32199   0.32398
  Beta virt. eigenvalues --    0.32847   0.33007   0.33325   0.33613   0.33685
  Beta virt. eigenvalues --    0.33984   0.34183   0.34359   0.34425   0.34953
  Beta virt. eigenvalues --    0.35118   0.35427   0.36021   0.36319   0.36438
  Beta virt. eigenvalues --    0.36486   0.36781   0.36915   0.37179   0.37439
  Beta virt. eigenvalues --    0.37662   0.37768   0.38039   0.38334   0.38483
  Beta virt. eigenvalues --    0.38669   0.38969   0.39130   0.39376   0.39451
  Beta virt. eigenvalues --    0.39811   0.39866   0.40071   0.40313   0.40492
  Beta virt. eigenvalues --    0.40727   0.40857   0.41196   0.41469   0.41572
  Beta virt. eigenvalues --    0.41752   0.42152   0.42264   0.42427   0.42539
  Beta virt. eigenvalues --    0.42753   0.42962   0.43288   0.43445   0.43491
  Beta virt. eigenvalues --    0.43633   0.43793   0.43849   0.44081   0.44519
  Beta virt. eigenvalues --    0.44729   0.44932   0.45202   0.45329   0.45507
  Beta virt. eigenvalues --    0.45668   0.45806   0.46023   0.46341   0.46535
  Beta virt. eigenvalues --    0.46717   0.47016   0.47135   0.47259   0.47419
  Beta virt. eigenvalues --    0.47546   0.47694   0.47742   0.48066   0.48266
  Beta virt. eigenvalues --    0.48299   0.48664   0.49125   0.49309   0.49570
  Beta virt. eigenvalues --    0.49665   0.49794   0.49844   0.50063   0.50202
  Beta virt. eigenvalues --    0.50479   0.50580   0.50633   0.50918   0.51151
  Beta virt. eigenvalues --    0.51372   0.51537   0.51717   0.51954   0.52241
  Beta virt. eigenvalues --    0.52328   0.52393   0.52429   0.52716   0.52900
  Beta virt. eigenvalues --    0.53182   0.53365   0.53572   0.53808   0.53948
  Beta virt. eigenvalues --    0.54360   0.54489   0.54707   0.54954   0.55210
  Beta virt. eigenvalues --    0.55438   0.55841   0.55906   0.56184   0.56497
  Beta virt. eigenvalues --    0.56592   0.57002   0.57224   0.57260   0.57440
  Beta virt. eigenvalues --    0.57614   0.57818   0.57997   0.58394   0.58755
  Beta virt. eigenvalues --    0.58925   0.59067   0.59632   0.59824   0.59900
  Beta virt. eigenvalues --    0.60246   0.60355   0.60853   0.61234   0.61334
  Beta virt. eigenvalues --    0.61476   0.61630   0.61922   0.62632   0.62679
  Beta virt. eigenvalues --    0.62828   0.63133   0.63371   0.63746   0.63827
  Beta virt. eigenvalues --    0.64013   0.64212   0.64601   0.64740   0.65024
  Beta virt. eigenvalues --    0.65442   0.65543   0.65882   0.66241   0.66516
  Beta virt. eigenvalues --    0.66593   0.66996   0.67161   0.67539   0.67722
  Beta virt. eigenvalues --    0.67923   0.68403   0.68499   0.68875   0.69040
  Beta virt. eigenvalues --    0.69413   0.69570   0.69772   0.70325   0.70494
  Beta virt. eigenvalues --    0.70680   0.71062   0.71296   0.71417   0.71920
  Beta virt. eigenvalues --    0.72145   0.72839   0.73108   0.73490   0.73611
  Beta virt. eigenvalues --    0.73721   0.73988   0.74544   0.74852   0.74961
  Beta virt. eigenvalues --    0.75382   0.75416   0.75445   0.75744   0.76140
  Beta virt. eigenvalues --    0.76654   0.76815   0.76990   0.77421   0.77654
  Beta virt. eigenvalues --    0.77834   0.78187   0.78519   0.78970   0.79086
  Beta virt. eigenvalues --    0.79378   0.79619   0.80179   0.80512   0.80727
  Beta virt. eigenvalues --    0.81089   0.81333   0.81377   0.81495   0.82006
  Beta virt. eigenvalues --    0.82488   0.82659   0.83283   0.83395   0.83881
  Beta virt. eigenvalues --    0.83973   0.84567   0.84959   0.85412   0.85640
  Beta virt. eigenvalues --    0.85864   0.86247   0.86385   0.86678   0.87039
  Beta virt. eigenvalues --    0.87577   0.87811   0.88127   0.88585   0.88870
  Beta virt. eigenvalues --    0.88943   0.89635   0.90038   0.90387   0.90528
  Beta virt. eigenvalues --    0.90895   0.91364   0.91636   0.91845   0.92036
  Beta virt. eigenvalues --    0.92234   0.92983   0.93273   0.93656   0.93796
  Beta virt. eigenvalues --    0.93877   0.94413   0.94725   0.95036   0.95314
  Beta virt. eigenvalues --    0.95726   0.96018   0.96293   0.96409   0.96761
  Beta virt. eigenvalues --    0.97281   0.97679   0.97742   0.98300   0.98352
  Beta virt. eigenvalues --    0.98698   0.99027   0.99164   0.99423   0.99662
  Beta virt. eigenvalues --    1.00040   1.00171   1.00497   1.00994   1.01156
  Beta virt. eigenvalues --    1.01388   1.01777   1.01890   1.02430   1.02827
  Beta virt. eigenvalues --    1.03080   1.03184   1.03579   1.03725   1.04070
  Beta virt. eigenvalues --    1.04490   1.04873   1.05266   1.05329   1.05968
  Beta virt. eigenvalues --    1.06125   1.06500   1.06785   1.06953   1.07300
  Beta virt. eigenvalues --    1.07462   1.07877   1.08485   1.08791   1.09132
  Beta virt. eigenvalues --    1.09311   1.09571   1.09946   1.10152   1.10591
  Beta virt. eigenvalues --    1.10996   1.11222   1.11786   1.12409   1.12569
  Beta virt. eigenvalues --    1.12747   1.13040   1.13478   1.13643   1.13915
  Beta virt. eigenvalues --    1.14178   1.14706   1.15133   1.15589   1.16023
  Beta virt. eigenvalues --    1.16514   1.16664   1.16982   1.17720   1.18066
  Beta virt. eigenvalues --    1.18381   1.18445   1.19415   1.19875   1.20088
  Beta virt. eigenvalues --    1.20779   1.21162   1.21454   1.21602   1.22153
  Beta virt. eigenvalues --    1.22424   1.22685   1.23160   1.23527   1.24003
  Beta virt. eigenvalues --    1.24160   1.24436   1.24661   1.25211   1.25606
  Beta virt. eigenvalues --    1.25926   1.26190   1.26805   1.26946   1.27519
  Beta virt. eigenvalues --    1.27940   1.28591   1.28713   1.29222   1.29620
  Beta virt. eigenvalues --    1.29910   1.30100   1.31177   1.31381   1.32179
  Beta virt. eigenvalues --    1.32282   1.32618   1.33052   1.33269   1.33488
  Beta virt. eigenvalues --    1.33664   1.34374   1.34897   1.35102   1.35406
  Beta virt. eigenvalues --    1.35599   1.36337   1.36608   1.37161   1.37469
  Beta virt. eigenvalues --    1.37572   1.38587   1.38783   1.39874   1.39963
  Beta virt. eigenvalues --    1.40268   1.40504   1.40807   1.41508   1.41734
  Beta virt. eigenvalues --    1.42078   1.42298   1.42731   1.43225   1.43553
  Beta virt. eigenvalues --    1.43925   1.44156   1.44421   1.44772   1.44911
  Beta virt. eigenvalues --    1.45354   1.45543   1.45718   1.46048   1.46638
  Beta virt. eigenvalues --    1.46858   1.47119   1.47379   1.47682   1.47976
  Beta virt. eigenvalues --    1.48338   1.48678   1.48990   1.49600   1.49652
  Beta virt. eigenvalues --    1.49917   1.50236   1.50529   1.50885   1.51309
  Beta virt. eigenvalues --    1.51610   1.51766   1.51949   1.52356   1.52704
  Beta virt. eigenvalues --    1.53230   1.53390   1.53576   1.53756   1.54040
  Beta virt. eigenvalues --    1.54443   1.54766   1.54981   1.55033   1.55534
  Beta virt. eigenvalues --    1.55789   1.55943   1.56227   1.56968   1.56991
  Beta virt. eigenvalues --    1.57642   1.57777   1.58074   1.58269   1.58623
  Beta virt. eigenvalues --    1.58823   1.59138   1.59438   1.59503   1.59828
  Beta virt. eigenvalues --    1.60187   1.60366   1.60582   1.60848   1.60948
  Beta virt. eigenvalues --    1.61223   1.61589   1.61880   1.62054   1.62228
  Beta virt. eigenvalues --    1.62528   1.62887   1.62943   1.63572   1.63751
  Beta virt. eigenvalues --    1.63852   1.64131   1.64369   1.65114   1.65229
  Beta virt. eigenvalues --    1.65485   1.65612   1.66218   1.66866   1.67112
  Beta virt. eigenvalues --    1.67480   1.67762   1.67966   1.68138   1.68391
  Beta virt. eigenvalues --    1.68682   1.69079   1.69697   1.69865   1.70089
  Beta virt. eigenvalues --    1.70665   1.70859   1.71131   1.71540   1.72034
  Beta virt. eigenvalues --    1.72227   1.72655   1.72823   1.72928   1.73385
  Beta virt. eigenvalues --    1.73666   1.73940   1.74404   1.75156   1.75666
  Beta virt. eigenvalues --    1.75857   1.76789   1.77057   1.77694   1.77967
[...]
    28 C(13)  Bbb     0.0148     1.984     0.708     0.662  0.3308  0.5013  0.7996
              Bcc     0.0230     3.089     1.102     1.030  0.7618 -0.6419  0.0872
 
              Baa    -0.0318    -4.267    -1.523    -1.423 -0.3454  0.9300  0.1258
    29 C(13)  Bbb    -0.0200    -2.690    -0.960    -0.897 -0.1112 -0.1736  0.9785
              Bcc     0.0519     6.958     2.483     2.321  0.9318  0.3240  0.1634
 
              Baa    -0.0267    -3.583    -1.279    -1.195 -0.2316 -0.0678  0.9704
    30 C(13)  Bbb    -0.0035    -0.463    -0.165    -0.155 -0.6125  0.7852 -0.0913
              Bcc     0.0302     4.046     1.444     1.350  0.7558  0.6155  0.2234
 
              Baa    -0.0280    -3.752    -1.339    -1.252  0.7703 -0.6370 -0.0280
    31 C(13)  Bbb     0.0087     1.164     0.415     0.388  0.6368  0.7708 -0.0163
              Bcc     0.0193     2.588     0.924     0.863  0.0320 -0.0053  0.9995
 
              Baa    -0.0326    -4.380    -1.563    -1.461 -0.2146 -0.1531  0.9646
    32 C(13)  Bbb    -0.0257    -3.445    -1.229    -1.149  0.9372 -0.3104  0.1592
              Bcc     0.0583     7.825     2.792     2.610  0.2750  0.9382  0.2101
 
              Baa    -0.0057    -0.766    -0.273    -0.256 -0.1372 -0.1971  0.9707
    33 C(13)  Bbb    -0.0036    -0.485    -0.173    -0.162 -0.4892  0.8656  0.1066
              Bcc     0.0093     1.251     0.446     0.417  0.8613  0.4603  0.2152
 
              Baa    -0.0706    -9.475    -3.381    -3.160  0.2399 -0.2763  0.9306
    34 C(13)  Bbb     0.0266     3.567     1.273     1.190  0.8806 -0.3415 -0.3284
              Bcc     0.0440     5.908     2.108     1.971  0.4086  0.8984  0.1614
 
              Baa    -0.0507    -6.800    -2.426    -2.268 -0.6035  0.1233  0.7878
    35 C(13)  Bbb    -0.0440    -5.903    -2.106    -1.969  0.5721  0.7551  0.3201
              Bcc     0.0947    12.703     4.533     4.237 -0.5554  0.6439 -0.5262
 
              Baa    -0.0287    -3.856    -1.376    -1.286  0.1952  0.0515  0.9794
    36 C(13)  Bbb    -0.0255    -3.422    -1.221    -1.142  0.9272  0.3159 -0.2014
              Bcc     0.0542     7.278     2.597     2.428 -0.3198  0.9474  0.0139
 
              Baa    -0.0151    -2.031    -0.725    -0.678  0.7731  0.6229  0.1199
    37 C(13)  Bbb    -0.0024    -0.322    -0.115    -0.107 -0.2156  0.0804  0.9732
              Bcc     0.0175     2.353     0.840     0.785 -0.5965  0.7782 -0.1964
 
              Baa    -0.0167    -2.240    -0.799    -0.747  0.6084  0.7641  0.2147
    38 C(13)  Bbb    -0.0001    -0.015    -0.005    -0.005 -0.2970 -0.0318  0.9544
              Bcc     0.0168     2.255     0.805     0.752  0.7360 -0.6444  0.2076
 
              Baa    -0.0318    -4.269    -1.523    -1.424 -0.2467 -0.2113  0.9458
    39 C(13)  Bbb    -0.0246    -3.300    -1.178    -1.101  0.2713  0.9219  0.2767
              Bcc     0.0564     7.570     2.701     2.525  0.9304 -0.3248  0.1700
 
              Baa    -0.0049    -0.658    -0.235    -0.220  0.7727  0.4034  0.4902
    40 C(13)  Bbb    -0.0045    -0.602    -0.215    -0.201 -0.4751 -0.1447  0.8679
              Bcc     0.0094     1.260     0.450     0.420 -0.4210  0.9035 -0.0799
 
              Baa    -0.0049    -0.658    -0.235    -0.220  0.4817  0.8251 -0.2951
    41 C(13)  Bbb    -0.0048    -0.638    -0.228    -0.213 -0.0450  0.3596  0.9320
              Bcc     0.0097     1.296     0.463     0.432  0.8752 -0.4357  0.2104
 
              Baa    -0.0032    -0.425    -0.152    -0.142  0.3687  0.7286  0.5773
    42 C(13)  Bbb    -0.0026    -0.352    -0.126    -0.117 -0.1515 -0.5656  0.8106
              Bcc     0.0058     0.776     0.277     0.259  0.9171 -0.3863 -0.0982
 
              Baa    -0.0016    -0.217    -0.077    -0.072 -0.1439 -0.3270  0.9340
    43 C(13)  Bbb    -0.0016    -0.210    -0.075    -0.070  0.3150  0.8796  0.3565
              Bcc     0.0032     0.428     0.153     0.143  0.9381 -0.3456  0.0236
 
              Baa    -0.0013     0.097     0.034     0.032 -0.0512 -0.4070  0.9120
    44 O(17)  Bbb    -0.0013     0.091     0.032     0.030  0.2410  0.8811  0.4068
              Bcc     0.0026    -0.188    -0.067    -0.063  0.9692 -0.2407 -0.0530
 
              Baa    -0.0014     0.098     0.035     0.033  0.0708  0.4919  0.8678
    45 O(17)  Bbb    -0.0012     0.087     0.031     0.029  0.3839  0.7895 -0.4789
              Bcc     0.0025    -0.184    -0.066    -0.062  0.9207 -0.3670  0.1330
 
              Baa    -0.1909    -7.362    -2.627    -2.456 -0.6897  0.7043 -0.1682
    46 N(14)  Bbb    -0.1216    -4.689    -1.673    -1.564 -0.2035  0.0344  0.9785
              Bcc     0.3124    12.050     4.300     4.020  0.6949  0.7091  0.1196
 
              Baa    -0.1763    -6.799    -2.426    -2.268  0.6987  0.7154 -0.0077
    47 N(14)  Bbb    -0.1369    -5.279    -1.884    -1.761 -0.0081  0.0188  0.9998
              Bcc     0.3131    12.077     4.309     4.029  0.7154 -0.6985  0.0189
 
              Baa    -0.1714    -6.610    -2.359    -2.205  0.7275 -0.6855 -0.0304
    48 N(14)  Bbb    -0.1308    -5.046    -1.800    -1.683 -0.1097 -0.1599  0.9810
              Bcc     0.3022    11.655     4.159     3.888  0.6773  0.7103  0.1916
 
              Baa    -0.1776    -6.848    -2.443    -2.284  0.6710  0.6977  0.2510
    49 N(14)  Bbb    -0.1278    -4.928    -1.759    -1.644 -0.1851 -0.1701  0.9679
              Bcc     0.3053    11.776     4.202     3.928  0.7180 -0.6959  0.0150
 
              Baa    -0.0644    -1.115    -0.398    -0.372  0.4242  0.8409  0.3361
    50 Fe(57) Bbb    -0.0044    -0.076    -0.027    -0.025  0.8566 -0.4931  0.1524
              Bcc     0.0688     1.191     0.425     0.397 -0.2938 -0.2233  0.9294
 
              Baa    -0.2290    16.573     5.914     5.528  0.4449  0.8740  0.1955
    51 O(17)  Bbb    -0.0386     2.791     0.996     0.931  0.8873 -0.4597  0.0357
              Bcc     0.2676   -19.364    -6.909    -6.459 -0.1211 -0.1576  0.9801
 
              Baa    -0.0040    -2.112    -0.754    -0.705  0.8986  0.3850  0.2103
    52 H(1)   Bbb    -0.0037    -1.948    -0.695    -0.650 -0.4385  0.7743  0.4562
              Bcc     0.0076     4.060     1.449     1.354  0.0128 -0.5022  0.8647
 
              Baa    -0.0032    -1.693    -0.604    -0.565  0.9475 -0.3175 -0.0373
    53 H(1)   Bbb    -0.0029    -1.570    -0.560    -0.524  0.3173  0.9202  0.2294
              Bcc     0.0061     3.264     1.165     1.089 -0.0385 -0.2292  0.9726
 
              Baa    -0.0035    -1.868    -0.667    -0.623 -0.4722  0.8517  0.2273
    54 H(1)   Bbb    -0.0033    -1.753    -0.626    -0.585  0.8349  0.3494  0.4253
              Bcc     0.0068     3.622     1.292     1.208 -0.2827 -0.3906  0.8761
 
              Baa    -0.0191   -10.210    -3.643    -3.406  0.9602  0.1980  0.1972
    55 H(1)   Bbb    -0.0180    -9.618    -3.432    -3.208 -0.2795  0.6736  0.6842
              Bcc     0.0372    19.828     7.075     6.614 -0.0027  0.7120 -0.7021
 
              Baa    -0.0246   -13.099    -4.674    -4.369  0.9413  0.3374 -0.0098
    56 H(1)   Bbb    -0.0226   -12.072    -4.308    -4.027 -0.2693  0.7334 -0.6242
              Bcc     0.0472    25.172     8.982     8.396 -0.2034  0.5902  0.7812
 
              Baa    -0.0038    -2.041    -0.728    -0.681  0.6565 -0.3957 -0.6422
    57 H(1)   Bbb    -0.0034    -1.836    -0.655    -0.613  0.6420 -0.1539  0.7511
              Bcc     0.0073     3.877     1.383     1.293  0.3960  0.9054 -0.1531
 
              Baa    -0.0040    -2.109    -0.753    -0.704  0.1812 -0.2279  0.9567
    58 H(1)   Bbb    -0.0035    -1.854    -0.662    -0.618  0.9345 -0.2631 -0.2396
              Bcc     0.0074     3.963     1.414     1.322  0.3063  0.9375  0.1653
 
              Baa    -0.0032    -1.687    -0.602    -0.563 -0.2323  0.0642  0.9705
    59 H(1)   Bbb    -0.0029    -1.544    -0.551    -0.515  0.7897 -0.5701  0.2268
              Bcc     0.0061     3.231     1.153     1.078  0.5678  0.8191  0.0817
 
              Baa    -0.0033    -1.745    -0.623    -0.582 -0.0346 -0.3253  0.9450
    60 H(1)   Bbb    -0.0031    -1.634    -0.583    -0.545 -0.5387  0.8025  0.2566
              Bcc     0.0063     3.380     1.206     1.127  0.8418  0.5002  0.2030
 
              Baa    -0.0045    -2.417    -0.862    -0.806 -0.1849  0.0574  0.9811
    61 H(1)   Bbb    -0.0040    -2.148    -0.766    -0.716 -0.2380  0.9660 -0.1014
              Bcc     0.0086     4.565     1.629     1.523  0.9535  0.2522  0.1650
 
              Baa    -0.0036    -1.922    -0.686    -0.641  0.3982 -0.5193  0.7561
    62 H(1)   Bbb    -0.0034    -1.804    -0.644    -0.602 -0.0996  0.7950  0.5984
              Bcc     0.0070     3.726     1.330     1.243  0.9119  0.3136 -0.2648
 
              Baa    -0.0027    -1.427    -0.509    -0.476 -0.1957  0.5890  0.7841
    63 H(1)   Bbb    -0.0026    -1.401    -0.500    -0.467 -0.5492  0.5966 -0.5852
              Bcc     0.0053     2.828     1.009     0.943  0.8125  0.5451 -0.2067
 
              Baa    -0.0009    -0.474    -0.169    -0.158  0.1181 -0.1260  0.9850
    64 H(1)   Bbb    -0.0009    -0.469    -0.167    -0.156 -0.4125  0.8961  0.1641
              Bcc     0.0018     0.943     0.337     0.315  0.9033  0.4257 -0.0539
 
              Baa    -0.0087    -4.637    -1.655    -1.547 -0.1630  0.0634  0.9846
    65 H(1)   Bbb    -0.0082    -4.352    -1.553    -1.452  0.0119  0.9980 -0.0623
              Bcc     0.0168     8.990     3.208     2.999  0.9866 -0.0015  0.1634
 
              Baa    -0.0468   -24.982    -8.914    -8.333  0.8872 -0.4598  0.0387
    66 H(1)   Bbb    -0.0387   -20.646    -7.367    -6.887  0.4590  0.8708 -0.1761
              Bcc     0.0855    45.628    16.281    15.220  0.0473  0.1740  0.9836
 
              Baa    -0.0456   -24.303    -8.672    -8.107  0.8772 -0.4796  0.0237
    67 H(1)   Bbb    -0.0378   -20.170    -7.197    -6.728  0.3893  0.7392  0.5496
              Bcc     0.0834    44.474    15.869    14.835 -0.2811 -0.4729  0.8351
 
              Baa    -0.0032    -1.702    -0.607    -0.568 -0.1431  0.2460  0.9587
    68 H(1)   Bbb    -0.0030    -1.579    -0.563    -0.527  0.6061  0.7875 -0.1116
              Bcc     0.0062     3.281     1.171     1.095  0.7824 -0.5651  0.2617
 
              Baa    -0.0041    -2.213    -0.790    -0.738 -0.3683 -0.2174  0.9039
    69 H(1)   Bbb    -0.0037    -1.985    -0.708    -0.662  0.2159  0.9257  0.3106
              Bcc     0.0079     4.198     1.498     1.400  0.9043 -0.3096  0.2940
 
              Baa    -0.0025    -1.350    -0.482    -0.450  0.3374  0.6850 -0.6457
    70 H(1)   Bbb    -0.0025    -1.329    -0.474    -0.443  0.4420  0.4903  0.7511
              Bcc     0.0050     2.680     0.956     0.894  0.8311 -0.5388 -0.1374
 
              Baa    -0.0035    -1.859    -0.663    -0.620  0.2758  0.4168  0.8661
    71 H(1)   Bbb    -0.0033    -1.736    -0.620    -0.579  0.2017  0.8560 -0.4761
              Bcc     0.0067     3.595     1.283     1.199  0.9398 -0.3060 -0.1520
 
              Baa    -0.0010    -0.560    -0.200    -0.187  0.1311 -0.1286  0.9830
    72 H(1)   Bbb    -0.0010    -0.556    -0.199    -0.186  0.3237  0.9427  0.0801
              Bcc     0.0021     1.116     0.398     0.372  0.9370 -0.3077 -0.1653
 
              Baa    -0.0032    -1.696    -0.605    -0.566  0.5861  0.2802  0.7603
    73 H(1)   Bbb    -0.0031    -1.660    -0.592    -0.554 -0.6206 -0.4481  0.6435
              Bcc     0.0063     3.356     1.197     1.119 -0.5209  0.8490  0.0888
 
              Baa    -0.0032    -1.730    -0.617    -0.577  0.7106  0.2251 -0.6666
    74 H(1)   Bbb    -0.0031    -1.654    -0.590    -0.552  0.5125  0.4835  0.7096
              Bcc     0.0063     3.384     1.208     1.129 -0.4821  0.8459 -0.2282
 
              Baa    -0.0041    -2.165    -0.773    -0.722 -0.1234  0.0106  0.9923
    75 H(1)   Bbb    -0.0036    -1.947    -0.695    -0.650  0.9548  0.2738  0.1158
              Bcc     0.0077     4.112     1.467     1.372 -0.2705  0.9617 -0.0439
 
              Baa    -0.0083    -4.431    -1.581    -1.478 -0.2378 -0.1345  0.9620
    76 H(1)   Bbb    -0.0073    -3.890    -1.388    -1.297  0.9711 -0.0145  0.2381
              Bcc     0.0156     8.321     2.969     2.776 -0.0181  0.9908  0.1340
 
              Baa    -0.0036    -1.944    -0.693    -0.648 -0.2293 -0.1496  0.9618
    77 H(1)   Bbb    -0.0014    -0.773    -0.276    -0.258 -0.6053  0.7957 -0.0205
              Bcc     0.0051     2.717     0.969     0.906  0.7622  0.5869  0.2730
 
              Baa    -0.0036    -1.908    -0.681    -0.636  0.1992 -0.4718  0.8589
    78 H(1)   Bbb    -0.0030    -1.607    -0.573    -0.536 -0.3732  0.7739  0.5116
              Bcc     0.0066     3.514     1.254     1.172  0.9061  0.4225  0.0219
 
              Baa    -0.0040    -2.120    -0.757    -0.707 -0.3586  0.1565  0.9203
    79 H(1)   Bbb    -0.0034    -1.809    -0.646    -0.604 -0.2222  0.9432 -0.2470
              Bcc     0.0074     3.930     1.402     1.311  0.9067  0.2931  0.3034
 
              Baa    -0.0068    -3.628    -1.295    -1.210  0.8347  0.2124 -0.5081
    80 H(1)   Bbb    -0.0008    -0.453    -0.162    -0.151 -0.5140  0.6317 -0.5803
              Bcc     0.0076     4.082     1.456     1.361  0.1977  0.7455  0.6365
 
              Baa    -0.0032    -1.699    -0.606    -0.567  0.6344  0.4125  0.6537
    81 H(1)   Bbb    -0.0010    -0.546    -0.195    -0.182 -0.3688  0.9048 -0.2130
              Bcc     0.0042     2.245     0.801     0.749 -0.6793 -0.1060  0.7262
 
              Baa    -0.0066    -3.510    -1.253    -1.171  0.9220 -0.3506 -0.1641
    82 H(1)   Bbb    -0.0052    -2.749    -0.981    -0.917  0.0647 -0.2783  0.9583
              Bcc     0.0117     6.260     2.234     2.088  0.3817  0.8942  0.2339
 
              Baa    -0.0090    -4.795    -1.711    -1.600 -0.1057 -0.1504  0.9829
    83 H(1)   Bbb    -0.0070    -3.748    -1.337    -1.250 -0.0289  0.9885  0.1482
              Bcc     0.0160     8.543     3.048     2.850  0.9940  0.0128  0.1089
 
              Baa    -0.0026    -1.381    -0.493    -0.461  0.0988 -0.1252  0.9872
    84 H(1)   Bbb    -0.0018    -0.940    -0.335    -0.314  0.6690  0.7428  0.0272
              Bcc     0.0043     2.321     0.828     0.774  0.7367 -0.6577 -0.1571
 
              Baa    -0.0038    -2.050    -0.731    -0.684  0.3701  0.5867  0.7203
    85 H(1)   Bbb    -0.0023    -1.246    -0.445    -0.416 -0.4183 -0.5870  0.6931
              Bcc     0.0062     3.296     1.176     1.099  0.8295 -0.5578  0.0282
 
              Baa    -0.0041    -2.176    -0.776    -0.726 -0.0354  0.0753  0.9965
    86 H(1)   Bbb    -0.0030    -1.601    -0.571    -0.534  0.1405  0.9876 -0.0697
              Bcc     0.0071     3.777     1.348     1.260  0.9895 -0.1375  0.0455
 
              Baa    -0.0035    -1.862    -0.664    -0.621  0.8534  0.4197 -0.3091
    87 H(1)   Bbb    -0.0031    -1.681    -0.600    -0.561  0.2016  0.2810  0.9383
              Bcc     0.0066     3.543     1.264     1.182 -0.4806  0.8631 -0.1552
 
              Baa    -0.0036    -1.899    -0.678    -0.634  0.7519  0.3651  0.5490
    88 H(1)   Bbb    -0.0031    -1.678    -0.599    -0.560 -0.3908 -0.4238  0.8171
              Bcc     0.0067     3.577     1.276     1.193 -0.5310  0.8289  0.1760
 
              Baa    -0.0042    -2.266    -0.809    -0.756 -0.0933 -0.0812  0.9923
    89 H(1)   Bbb    -0.0038    -2.033    -0.725    -0.678  0.9580  0.2640  0.1116
              Bcc     0.0081     4.299     1.534     1.434 -0.2711  0.9611  0.0532
 
              Baa    -0.0083    -4.455    -1.590    -1.486  0.0106  0.0266  0.9996
    90 H(1)   Bbb    -0.0075    -3.997    -1.426    -1.333  0.9999  0.0092 -0.0109
              Bcc     0.0158     8.452     3.016     2.819 -0.0095  0.9996 -0.0265
 

 ---------------------------------------------------------------------------------

 1\1\GINC-NODE780\SP\UPBE1PBE\def2TZVP\C38H40Fe1N6O5(1+,6)\ZHARTOVSKA\2
 8-Jan-2023\0\\# PBE1PBE/def2TZVP empiricaldispersion=GD3BJ int=(grid=u
 ltrafine) geom=check guess=read scrf=(smd,solvent=Chloroform)\\1ccc_II
 I_H_solv\\1,6\C,0,-9.179,55.032001,107.751999\C,0,-8.656,55.674,109.04
 6997\N,0,-9.337,56.250999,110.028\C,0,-7.346,55.780998,109.43\C,0,-8.5
 17,56.655998,110.967003\N,0,-7.296,56.370998,110.600998\H,0,-10.269,56
 .52,109.991997\C,0,-5.551,53.891998,112.957001\C,0,-7.582,57.994999,11
 4.478996\C,0,-6.051,60.050999,110.455002\C,0,-3.606,56.143002,109.236\
 C,0,-6.256,54.818001,113.740997\C,0,-6.747,54.521999,114.977997\C,0,-7
 .371,55.700001,115.428001\C,0,-7.164,56.651001,114.442001\C,0,-8.086,5
 5.956001,116.762001\C,0,-6.553,53.157001,115.632004\C,0,-5.476,53.0719
 99,116.681\C,0,-5.338,51.675999,117.300003\O,0,-6.184,51.243999,118.07
 0999\O,0,-4.374,50.963001,117.069\C,0,-7.439,58.946999,113.445\C,0,-8.
 009,60.230999,113.431\C,0,-7.608,60.790001,112.216003\C,0,-6.791,59.83
 3,111.614998\C,0,-8.955,60.765999,114.491997\C,0,-7.873,62.019001,111.
 592003\C,0,-8.696,63.097,112.033997\C,0,-5.174,59.214001,109.761002\C,
 0,-4.391,59.620998,108.681\C,0,-3.586,58.502998,108.416\C,0,-4.037,57.
 471001,109.253998\C,0,-4.411,61.018002,108.022003\C,0,-2.583,58.320999
 ,107.460999\C,0,-2.38,59.068001,106.225998\C,0,-3.969,55.112,110.09999
 8\C,0,-3.707,53.769001,109.891998\C,0,-4.284,53.110001,110.969002\C,0,
 -4.859,54.103001,111.761002\C,0,-2.951,53.118999,108.755997\C,0,-4.239
 ,51.602001,111.250999\C,0,-3.022,51.188999,112.087997\C,0,-3.017,49.73
 6,112.529999\O,0,-2.521,49.410999,113.591003\O,0,-3.525,48.903,111.799
 004\N,0,-6.505,56.102001,113.416\N,0,-6.791,58.702999,112.305\N,0,-4.9
 82,57.915001,110.075996\N,0,-4.679,55.299999,111.214996\Fe,0,-5.764,57
 .006001,111.725998\O,0,-4.379,57.564999,112.833\H,0,-8.47882994,54.299
 08433,107.40922351\H,0,-10.12188072,54.5631492,107.94187774\H,0,-9.300
 35533,55.78686697,107.00343354\H,0,-6.50222068,55.43984647,108.8673703
 8\H,0,-8.80002455,57.13849908,111.87913775\H,0,-7.47904095,56.58754034
 ,117.37654048\H,0,-9.02522183,56.43415344,116.57725092\H,0,-8.25213139
 ,55.02475525,117.2620827\H,0,-7.47972763,52.8706197,116.08373583\H,0,-
 6.323465,52.44983052,114.86250832\H,0,-4.5417231,53.34276352,116.23522
 737\H,0,-5.70027299,53.77105398,117.45941105\H,0,-5.91534737,50.793488
 84,118.87503032\H,0,-5.5419176,52.88729057,113.32494188\H,0,-3.5413641
 5,57.90787826,112.513\H,0,-4.379,57.564999,113.793\H,0,-4.20968018,51.
 07792996,110.3185882\H,0,-5.12873146,51.32300875,111.77582398\H,0,-2.1
 391577,51.36883063,111.51080547\H,0,-2.98770606,51.80700086,112.960807
 19\H,0,-1.56611326,49.38201798,113.68561496\H,0,-2.01608841,52.7448324
 8,109.11771476\H,0,-3.52911949,52.31079548,108.35915329\H,0,-2.7726039
 5,53.84121908,107.98692418\H,0,-2.91158606,55.88546894,108.46375263\H,
 0,-3.54203963,61.13558624,107.40882943\H,0,-5.28919586,61.11512614,107
 .4184809\H,0,-4.41561775,61.77094553,108.78223633\H,0,-1.38787206,59.2
 7539721,105.88311468\H,0,-3.22310376,59.40898584,105.6622557\H,0,-1.87
 950976,57.53968841,107.65988401\H,0,-6.1751832,61.02216565,110.0233611
 \H,0,-8.30749674,64.09379938,112.05287069\H,0,-9.70184271,62.90881946,
 112.34667658\H,0,-7.38829493,62.16872245,110.64990721\H,0,-8.49365249,
 61.58701664,114.9999227\H,0,-9.86064458,61.0970181,114.02817132\H,0,-9
 .17714853,59.99086332,115.19535658\H,0,-8.05468308,58.3282858,115.3792
 1298\\Version=AM64L-G16RevA.03\State=6-A\HF=-3438.5154709\S2=8.76547\S
 2-1=0.\S2A=8.750066\RMSD=4.774e-09\Dipole=-1.2989154,3.3139879,0.41214
 1\Quadrupole=16.2144261,-37.7090047,21.4945786,-7.929567,-1.6698159,-9
 .8017931\PG=C01 [X(C38H40Fe1N6O5)]\\@


 DIATOMIC MOLECULES ARE PECULIAR BECAUSE THEY ONLY HAVE TWO ENDS,
 AND THESE ENDS ARE VERY CLOSE TOGETHER.
 KLAUS RUEDENBERG, REV.MOD.PHYS. PG 176, 32, (1960)
 Job cpu time:       3 days  8 hours  2 minutes 38.2 seconds.
 Elapsed time:       0 days 20 hours  5 minutes 53.6 seconds.
 File lengths (MBytes):  RWF=   3716 Int=      0 D2E=      0 Chk=    252 Scr=      1
 Normal termination of Gaussian 16 at Sat Jan 28 17:45:23 2023.
