 Initial command:
 /afs/math/software/gaussian/g16.A03/g16/l1.exe "/scratch/zhartovska_gaussian.hWgSocX/Gau-10031.inp" -scrdir="/scratch/zhartovska_gaussian.hWgSocX/"
 Entering Link 1 = /afs/math/software/gaussian/g16.A03/g16/l1.exe PID=      5284.
  
 Copyright (c) 1988,1990,1992,1993,1995,1998,2003,2009,2016,
            Gaussian, Inc.  All Rights Reserved.
  
 This is part of the Gaussian(R) 16 program.  It is based on
 the Gaussian(R) 09 system (copyright 2009, Gaussian, Inc.),
 the Gaussian(R) 03 system (copyright 2003, Gaussian, Inc.),
 the Gaussian(R) 98 system (copyright 1998, Gaussian, Inc.),
 the Gaussian(R) 94 system (copyright 1995, Gaussian, Inc.),
 the Gaussian 92(TM) system (copyright 1992, Gaussian, Inc.),
 the Gaussian 90(TM) system (copyright 1990, Gaussian, Inc.),
 the Gaussian 88(TM) system (copyright 1988, Gaussian, Inc.),
 the Gaussian 86(TM) system (copyright 1986, Carnegie Mellon
 University), and the Gaussian 82(TM) system (copyright 1983,
 Carnegie Mellon University). Gaussian is a federally registered
 trademark of Gaussian, Inc.
  
 This software contains proprietary and confidential information,
 including trade secrets, belonging to Gaussian, Inc.
  
 This software is provided under written license and may be
 used, copied, transmitted, or stored only in accord with that
 written license.
  
 The following legend is applicable only to US Government
 contracts under FAR:
  
                    RESTRICTED RIGHTS LEGEND
  
 Use, reproduction and disclosure by the US Government is
 subject to restrictions as set forth in subparagraphs (a)
 and (c) of the Commercial Computer Software - Restricted
 Rights clause in FAR 52.227-19.
  
 Gaussian, Inc.
 340 Quinnipiac St., Bldg. 40, Wallingford CT 06492
  
  
 ---------------------------------------------------------------
 Warning -- This program may not be used in any manner that
 competes with the business of Gaussian, Inc. or will provide
 assistance to any competitor of Gaussian, Inc.  The licensee
 of this program is prohibited from giving any competitor of
 Gaussian, Inc. access to this program.  By using this program,
 the user acknowledges that Gaussian, Inc. is engaged in the
 business of creating and licensing software in the field of
 computational chemistry and represents and warrants to the
 licensee that it is not a competitor of Gaussian, Inc. and that
 it will not use this program in any manner prohibited above.
 ---------------------------------------------------------------
  

 Cite this work as:
 Gaussian 16, Revision A.03,
 M. J. Frisch, G. W. Trucks, H. B. Schlegel, G. E. Scuseria, 
 M. A. Robb, J. R. Cheeseman, G. Scalmani, V. Barone, 
 G. A. Petersson, H. Nakatsuji, X. Li, M. Caricato, A. V. Marenich, 
 J. Bloino, B. G. Janesko, R. Gomperts, B. Mennucci, H. P. Hratchian, 
 J. V. Ortiz, A. F. Izmaylov, J. L. Sonnenberg, D. Williams-Young, 
 F. Ding, F. Lipparini, F. Egidi, J. Goings, B. Peng, A. Petrone, 
 T. Henderson, D. Ranasinghe, V. G. Zakrzewski, J. Gao, N. Rega, 
 G. Zheng, W. Liang, M. Hada, M. Ehara, K. Toyota, R. Fukuda, 
 J. Hasegawa, M. Ishida, T. Nakajima, Y. Honda, O. Kitao, H. Nakai, 
 T. Vreven, K. Throssell, J. A. Montgomery, Jr., J. E. Peralta, 
 F. Ogliaro, M. J. Bearpark, J. J. Heyd, E. N. Brothers, K. N. Kudin, 
 V. N. Staroverov, T. A. Keith, R. Kobayashi, J. Normand, 
 K. Raghavachari, A. P. Rendell, J. C. Burant, S. S. Iyengar, 
 J. Tomasi, M. Cossi, J. M. Millam, M. Klene, C. Adamo, R. Cammi, 
 J. W. Ochterski, R. L. Martin, K. Morokuma, O. Farkas, 
 J. B. Foresman, and D. J. Fox, Gaussian, Inc., Wallingford CT, 2016.
 
 ******************************************
 Gaussian 16:  ES64L-G16RevA.03 25-Dec-2016
                20-Jan-2023 
 ******************************************
 %nprocs=12
 Will use up to   12 processors via shared memory.
 %mem=16GB
 %chk=1ccc_III_D.chk
 ----------------------------------------------------------------------
 # PBE1PBE/def2TZVP empiricaldispersion=GD3BJ int=(grid=ultrafine) geom
 =check guess=read scrf=(smd,solvent=Chloroform)
 ----------------------------------------------------------------------
 1/29=2,38=1,172=1/1;
 2/12=2,40=1/2;
 3/5=44,7=101,11=2,14=-4,25=1,30=1,70=32201,72=7,74=-13,75=-5,116=-2,124=41/1,2,3;
 4/5=1/1;
 5/5=2,38=6,53=7/2;
 6/7=2,8=2,9=2,10=2,28=1/1;
 99/5=1,9=1/99;
 ---------------
 1ccc_III_D_solv
 ---------------
 Structure from the checkpoint file:  "1ccc_III_D.chk"
 Charge =  1 Multiplicity = 2
 Z-Matrix found in chk file.
 C,0,-9.179,55.032001,107.751999
 C,0,-8.656,55.674,109.046997
 N,0,-9.337,56.250999,110.028
 C,0,-7.346,55.780998,109.43
 C,0,-8.517,56.655998,110.967003
 N,0,-7.296,56.370998,110.600998
 H,0,-10.269,56.52,109.991997
 C,0,-5.551,53.891998,112.957001
 C,0,-7.582,57.994999,114.478996
 C,0,-6.051,60.050999,110.455002
 C,0,-3.606,56.143002,109.236
 C,0,-6.256,54.818001,113.740997
 C,0,-6.747,54.521999,114.977997
 C,0,-7.371,55.700001,115.428001
 C,0,-7.164,56.651001,114.442001
 C,0,-8.086,55.956001,116.762001
 C,0,-6.553,53.157001,115.632004
 C,0,-5.476,53.071999,116.681
 C,0,-5.338,51.675999,117.300003
 O,0,-6.184,51.243999,118.070999
 O,0,-4.374,50.963001,117.069
 C,0,-7.439,58.946999,113.445
 C,0,-8.009,60.230999,113.431
 C,0,-7.608,60.790001,112.216003
 C,0,-6.791,59.833,111.614998
 C,0,-8.955,60.765999,114.491997
 C,0,-7.873,62.019001,111.592003
 C,0,-8.696,63.097,112.033997
 C,0,-5.174,59.214001,109.761002
 C,0,-4.391,59.620998,108.681
 C,0,-3.586,58.502998,108.416
 C,0,-4.037,57.471001,109.253998
 C,0,-4.411,61.018002,108.022003
 C,0,-2.583,58.320999,107.460999
 C,0,-2.38,59.068001,106.225998
 C,0,-3.969,55.112,110.099998
 C,0,-3.707,53.769001,109.891998
 C,0,-4.284,53.110001,110.969002
 C,0,-4.859,54.103001,111.761002
 C,0,-2.951,53.118999,108.755997
 C,0,-4.239,51.602001,111.250999
 C,0,-3.022,51.188999,112.087997
 C,0,-3.017,49.736,112.529999
 O,0,-2.521,49.410999,113.591003
 O,0,-3.525,48.903,111.799004
 N,0,-6.505,56.102001,113.416
 N,0,-6.791,58.702999,112.305
 N,0,-4.982,57.915001,110.075996
 N,0,-4.679,55.299999,111.214996
 Fe,0,-5.764,57.006001,111.725998
 O,0,-4.379,57.564999,112.833
 H,0,-8.47882994,54.29908433,107.40922351
 H,0,-10.12188072,54.5631492,107.94187774
 H,0,-9.30035533,55.78686697,107.00343354
 H,0,-6.50222068,55.43984647,108.86737038
 H,0,-8.80002455,57.13849908,111.87913775
 H,0,-7.47904095,56.58754034,117.37654048
 H,0,-9.02522183,56.43415344,116.57725092
 H,0,-8.25213139,55.02475525,117.2620827
 H,0,-7.47972763,52.8706197,116.08373583
 H,0,-6.323465,52.44983052,114.86250832
 H,0,-4.5417231,53.34276352,116.23522737
 H,0,-5.70027299,53.77105398,117.45941105
 H,0,-5.91534737,50.79348884,118.87503032
 H,0,-5.5419176,52.88729057,113.32494188
 H,0,-3.54136415,57.90787826,112.513
 H,0,-4.379,57.564999,113.793
 H,0,-4.20968018,51.07792996,110.3185882
 H,0,-5.12873146,51.32300875,111.77582398
 H,0,-2.1391577,51.36883063,111.51080547
 H,0,-2.98770606,51.80700086,112.96080719
 H,0,-1.56611326,49.38201798,113.68561496
 H,0,-2.01608841,52.74483248,109.11771476
 H,0,-3.52911949,52.31079548,108.35915329
 H,0,-2.77260395,53.84121908,107.98692418
 H,0,-2.91158606,55.88546894,108.46375263
 H,0,-3.54203963,61.13558624,107.40882943
 H,0,-5.28919586,61.11512614,107.4184809
 H,0,-4.41561775,61.77094553,108.78223633
 H,0,-1.38787206,59.27539721,105.88311468
 H,0,-3.22310376,59.40898584,105.6622557
 H,0,-1.87950976,57.53968841,107.65988401
 H,0,-6.1751832,61.02216565,110.0233611
 H,0,-8.30749674,64.09379938,112.05287069
 H,0,-9.70184271,62.90881946,112.34667658
 H,0,-7.38829493,62.16872245,110.64990721
 H,0,-8.49365249,61.58701664,114.9999227
 H,0,-9.86064458,61.0970181,114.02817132
 H,0,-9.17714853,59.99086332,115.19535658
 H,0,-8.05468308,58.3282858,115.37921298
 Recover connectivity data from disk.
 Stoichiometry    C38H40FeN6O5(1+,2)
 Framework group  C1[X(C38H40FeN6O5)]
 Deg. of freedom   264
 Full point group                 C1      NOp   1
 Largest Abelian subgroup         C1      NOp   1
 Largest concise Abelian subgroup C1      NOp   1
                         Standard orientation:                         
 ---------------------------------------------------------------------
 Center     Atomic      Atomic             Coordinates (Angstroms)
 Number     Number       Type             X           Y           Z
 ---------------------------------------------------------------------
      1          6           0       -1.569949   -1.838410    4.961434
      2          6           0       -1.479392   -0.895843    3.750616
      3          7           0       -1.693155    0.411778    3.691563
      4          6           0       -1.162440   -1.249704    2.466652
      5          6           0       -1.491293    0.845786    2.471301
      6          7           0       -1.168366   -0.171647    1.718591
      7          1           0       -2.121131    0.949831    4.376849
      8          6           0        2.363359    0.103689    0.237942
      9          6           0       -0.981740    3.544414   -0.259818
     10          6           0       -4.244496    0.084665   -0.644771
     11          6           0       -0.862945   -3.276823   -0.688878
     12          6           0        1.752141    1.363646    0.148080
     13          6           0        2.454817    2.531999    0.156170
     14          6           0        1.492355    3.551874    0.041755
     15          6           0        0.266693    2.918016   -0.082441
     16          6           0        1.707747    5.070714   -0.013430
     17          6           0        3.977852    2.572143    0.241803
     18          6           0        4.707806    2.821643   -1.051435
     19          6           0        6.232571    2.854570   -0.893225
     20          8           0        6.787480    3.798328   -0.347173
     21          8           0        6.943109    1.961180   -1.326830
     22          6           0       -2.241017    2.906098   -0.311552
     23          6           0       -3.487070    3.554977   -0.319243
     24          6           0       -4.429216    2.525371   -0.361342
     25          6           0       -3.690649    1.344435   -0.428095
     26          6           0       -3.679044    5.054793   -0.175876
     27          6           0       -5.832646    2.508679   -0.349091
     28          6           0       -6.747712    3.599106   -0.257492
     29          6           0       -3.640666   -1.168920   -0.768240
     30          6           0       -4.318680   -2.334301   -1.125064
     31          6           0       -3.295330   -3.284463   -1.259688
     32          6           0       -2.107901   -2.663283   -0.841590
     33          6           0       -5.839420   -2.461272   -1.364908
     34          6           0       -3.358381   -4.630509   -1.627580
     35          6           0       -4.512237   -5.519088   -1.568492
     36          6           0        0.351357   -2.680930   -0.354800
     37          6           0        1.495817   -3.361923    0.022047
     38          6           0        2.433591   -2.378155    0.304765
     39          6           0        1.791134   -1.161598    0.078546
     40          6           0        1.721205   -4.853869    0.110569
     41          6           0        3.894296   -2.597839    0.721528
     42          6           0        4.848486   -2.684053   -0.476101
     43          6           0        6.322185   -2.738898   -0.113061
     44          8           0        7.159932   -2.240473   -0.839094
     45          8           0        6.646332   -3.290452    0.924737
     46          7           0        0.432203    1.593744    0.002826
     47          7           0       -2.395877    1.581569   -0.285487
     48          7           0       -2.322517   -1.381173   -0.565956
     49          7           0        0.533194   -1.359426   -0.297990
     50         26           0       -0.955432    0.100357   -0.255377
     51          8           0       -0.710817    0.414192   -2.071370
     52          1           0       -0.939628   -2.687861    4.800098
     53          1           0       -1.251465   -1.319985    5.841606
     54          1           0       -2.581790   -2.163516    5.085460
     55          1           0       -0.945674   -2.241587    2.128896
     56          1           0       -1.576626    1.861783    2.146695
     57          1           0        1.529701    5.420262   -1.008928
     58          1           0        1.029689    5.551814    0.660129
     59          1           0        2.713992    5.298783    0.270042
     60          1           0        4.251353    3.343162    0.931460
     61          1           0        4.312919    1.635882    0.636830
     62          1           0        4.452073    2.047049   -1.743898
     63          1           0        4.384735    3.760007   -1.451432
     64          1           0        7.582380    4.175424   -0.731274
     65          1           0        3.410323    0.112777    0.458589
     66          1           0       -0.994066   -0.188352   -2.762970
     67          1           0       -0.296596    1.184219   -2.467702
     68          1           0        3.959897   -3.507907    1.280430
     69          1           0        4.199766   -1.785638    1.347560
     70          1           0        4.606620   -3.562382   -1.037295
     71          1           0        4.686239   -1.829053   -1.098637
     72          1           0        7.405716   -2.676398   -1.658337
     73          1           0        2.383060   -5.161637   -0.671816
     74          1           0        2.154480   -5.093467    1.059129
     75          1           0        0.785633   -5.362681    0.007060
     76          1           0       -0.838466   -4.334645   -0.847974
     77          1           0       -6.044495   -3.378566   -1.876197
     78          1           0       -6.350507   -2.454929   -0.424881
     79          1           0       -6.176616   -1.638271   -1.959775
     80          1           0       -4.656793   -6.259408   -2.327392
     81          1           0       -5.214736   -5.431083   -0.766214
     82          1           0       -2.451020   -5.060786   -1.996982
     83          1           0       -5.310973    0.075810   -0.731068
     84          1           0       -7.546102    3.688347   -0.964252
     85          1           0       -6.635719    4.327813    0.517972
     86          1           0       -6.280189    1.539244   -0.418379
     87          1           0       -4.097633    5.448676   -1.078394
     88          1           0       -4.341387    5.253143    0.640738
     89          1           0       -2.733355    5.519163    0.011030
     90          1           0       -0.976188    4.609126   -0.365920
 ---------------------------------------------------------------------
 Rotational constants (GHZ):           0.0766737           0.0457560           0.0337649
 Standard basis: def2TZVP (5D, 7F)
 There are  2056 symmetry adapted cartesian basis functions of A   symmetry.
 There are  1804 symmetry adapted basis functions of A   symmetry.
  1804 basis functions,  2921 primitive gaussians,  2056 cartesian basis functions
   188 alpha electrons      187 beta electrons
       nuclear repulsion energy      7619.4034109246 Hartrees.
 NAtoms=   90 NActive=   90 NUniq=   90 SFac= 1.00D+00 NAtFMM=   60 NAOKFM=T Big=T
 Integral buffers will be    131072 words long.
 Raffenetti 2 integral format.
 Two-electron integral symmetry is turned on.
 Nuclear repulsion after empirical dispersion term =     7619.2785381362 Hartrees.
 ------------------------------------------------------------------------------
 Polarizable Continuum Model (PCM)
 =================================
 Model                : PCM.
 Atomic radii         : SMD-Coulomb.
 Polarization charges : Total charges.
 Charge compensation  : None.
 Solution method      : On-the-fly selection.
 Cavity type          : VdW (van der Waals Surface) (Alpha=1.000).
 Cavity algorithm     : GePol (No added spheres)
                        Default sphere list used, NSphG=   90.
                        Lebedev-Laikov grids with approx.  5.0 points / Ang**2.
                        Smoothing algorithm: York/Karplus (Gamma=1.0000).
                        Polarization charges: spherical gaussians, with
                                              point-specific exponents (IZeta= 3).
                        Self-potential: point-specific (ISelfS= 7).
                        Self-field    : sphere-specific E.n sum rule (ISelfD= 2).
 Solvent              : Chloroform, Eps=   4.711300 Eps(inf)=   2.090627
 ------------------------------------------------------------------------------
 ------------------------------------------------------------------------------
 Atomic radii for non-electrostatic terms: SMD-CDS.
 ------------------------------------------------------------------------------
 Nuclear repulsion after PCM non-electrostatic terms =     7619.2581009765 Hartrees.
 One-electron integrals computed using PRISM.
   1 Symmetry operations used in ECPInt.
 ECPInt:  NShTT=  255255 NPrTT=  790653 LenC2=  185308 LenP2D=  372504.
 LDataN:  DoStor=T MaxTD1= 6 Len=  172
 NBasis=  1804 RedAO= T EigKep=  3.00D-06  NBF=  1804
 NBsUse=  1804 1.00D-06 EigRej= -1.00D+00 NBFU=  1804
 Initial guess from the checkpoint file:  "1ccc_III_D.chk"
 B after Tr=     0.000000    0.000000   -0.000000
         Rot=    1.000000    0.000000   -0.000000   -0.000000 Ang=   0.00 deg.
 Initial guess <Sx>= 0.0000 <Sy>= 0.0000 <Sz>= 0.5000 <S**2>= 1.0900 S= 0.6576
 Requested convergence on RMS density matrix=1.00D-08 within 128 cycles.
 Requested convergence on MAX density matrix=1.00D-06.
 Requested convergence on             energy=1.00D-06.
 No special actions if energy rises.
 Inv3:  Mode=1 IEnd=   125001075.
 Iteration    1 A*A^-1 deviation from unit magnitude is 3.55D-15 for   1629.
 Iteration    1 A*A^-1 deviation from orthogonality  is 3.02D-15 for   2199   1635.
 Iteration    1 A^-1*A deviation from unit magnitude is 3.44D-15 for    737.
 Iteration    1 A^-1*A deviation from orthogonality  is 1.06D-14 for   2345   2287.
 Restarting incremental Fock formation.
 Restarting incremental Fock formation.
 Error on total polarization charges =  0.07449
 SCF Done:  E(UPBE1PBE) =  -3438.52182919     A.U. after   45 cycles
            NFock= 45  Conv=0.14D-08     -V/T= 2.0028
 <Sx>= 0.0000 <Sy>= 0.0000 <Sz>= 0.5000 <S**2>= 1.0498 S= 0.6401
 <L.S>= 0.000000000000E+00
 SMD-CDS (non-electrostatic) energy       (kcal/mol) =     -12.82
 (included in total energy above)
 Annihilation of the first spin contaminant:
 S**2 before annihilation     1.0498,   after     0.8016

 **********************************************************************

            Population analysis using the SCF density.

 **********************************************************************

 Orbital symmetries:
 Alpha Orbitals:
       Occupied  (A) (A) (A) (A) (A) (A) (A) (A) (A) (A) (A) (A)
                 (A) (A) (A) (A) (A) (A) (A) (A) (A) (A) (A) (A)
                 (A) (A) (A) (A) (A) (A) (A) (A) (A) (A) (A) (A)
                 (A) (A) (A) (A) (A) (A) (A) (A) (A) (A) (A) (A)
                 (A) (A) (A) (A) (A) (A) (A) (A) (A) (A) (A) (A)
                 (A) (A) (A) (A) (A) (A) (A) (A) (A) (A) (A) (A)
                 (A) (A) (A) (A) (A) (A) (A) (A) (A) (A) (A) (A)
                 (A) (A) (A) (A) (A) (A) (A) (A) (A) (A) (A) (A)
                 (A) (A) (A) (A) (A) (A) (A) (A) (A) (A) (A) (A)
                 (A) (A) (A) (A) (A) (A) (A) (A) (A) (A) (A) (A)
                 (A) (A) (A) (A) (A) (A) (A) (A) (A) (A) (A) (A)
                 (A) (A) (A) (A) (A) (A) (A) (A) (A) (A) (A) (A)
                 (A) (A) (A) (A) (A) (A) (A) (A) (A) (A) (A) (A)
                 (A) (A) (A) (A) (A) (A) (A) (A) (A) (A) (A) (A)
                 (A) (A) (A) (A) (A) (A) (A) (A) (A) (A) (A) (A)
                 (A) (A) (A) (A) (A) (A) (A) (A)
       Virtual   (A) (A) (A) (A) (A) (A) (A) (A) (A) (A) (A) (A)
                 (A) (A) (A) (A) (A) (A) (A) (A) (A) (A) (A) (A)
                 (A) (A) (A) (A) (A) (A) (A) (A) (A) (A) (A) (A)
                 (A) (A) (A) (A) (A) (A) (A) (A) (A) (A) (A) (A)
                 (A) (A) (A) (A) (A) (A) (A) (A) (A) (A) (A) (A)
                 (A) (A) (A) (A) (A) (A) (A) (A) (A) (A) (A) (A)
                 (A) (A) (A) (A) (A) (A) (A) (A) (A) (A) (A) (A)
                 (A) (A) (A) (A) (A) (A) (A) (A) (A) (A) (A) (A)
                 (A) (A) (A) (A) (A) (A) (A) (A) (A) (A) (A) (A)
                 (A) (A) (A) (A) (A) (A) (A) (A) (A) (A) (A) (A)
                 (A) (A) (A) (A) (A) (A) (A) (A) (A) (A) (A) (A)
                 (A) (A) (A) (A) (A) (A) (A) (A) (A) (A) (A) (A)
                 (A) (A) (A) (A) (A) (A) (A) (A) (A) (A) (A) (A)
                 (A) (A) (A) (A) (A) (A) (A) (A) (A) (A) (A) (A)
                 (A) (A) (A) (A) (A) (A) (A) (A) (A) (A) (A) (A)
                 (A) (A) (A) (A) (A) (A) (A) (A) (A) (A) (A) (A)
                 (A) (A) (A) (A) (A) (A) (A) (A) (A) (A) (A) (A)
                 (A) (A) (A) (A) (A) (A) (A) (A) (A) (A) (A) (A)
                 (A) (A) (A) (A) (A) (A) (A) (A) (A) (A) (A) (A)
                 (A) (A) (A) (A) (A) (A) (A) (A) (A) (A) (A) (A)
                 (A) (A) (A) (A) (A) (A) (A) (A) (A) (A) (A) (A)
                 (A) (A) (A) (A) (A) (A) (A) (A) (A) (A) (A) (A)
                 (A) (A) (A) (A) (A) (A) (A) (A) (A) (A) (A) (A)
                 (A) (A) (A) (A) (A) (A) (A) (A) (A) (A) (A) (A)
                 (A) (A) (A) (A) (A) (A) (A) (A) (A) (A) (A) (A)
                 (A) (A) (A) (A) (A) (A) (A) (A) (A) (A) (A) (A)
                 (A) (A) (A) (A) (A) (A) (A) (A) (A) (A) (A) (A)
                 (A) (A) (A) (A) (A) (A) (A) (A) (A) (A) (A) (A)
                 (A) (A) (A) (A) (A) (A) (A) (A) (A) (A) (A) (A)
                 (A) (A) (A) (A) (A) (A) (A) (A) (A) (A) (A) (A)
                 (A) (A) (A) (A) (A) (A) (A) (A) (A) (A) (A) (A)
                 (A) (A) (A) (A) (A) (A) (A) (A) (A) (A) (A) (A)
                 (A) (A) (A) (A) (A) (A) (A) (A) (A) (A) (A) (A)
                 (A) (A) (A) (A) (A) (A) (A) (A) (A) (A) (A) (A)
                 (A) (A) (A) (A) (A) (A) (A) (A) (A) (A) (A) (A)
                 (A) (A) (A) (A) (A) (A) (A) (A) (A) (A) (A) (A)
                 (A) (A) (A) (A) (A) (A) (A) (A) (A) (A) (A) (A)
                 (A) (A) (A) (A) (A) (A) (A) (A) (A) (A) (A) (A)
                 (A) (A) (A) (A) (A) (A) (A) (A) (A) (A) (A) (A)
                 (A) (A) (A) (A) (A) (A) (A) (A) (A) (A) (A) (A)
                 (A) (A) (A) (A) (A) (A) (A) (A) (A) (A) (A) (A)
                 (A) (A) (A) (A) (A) (A) (A) (A) (A) (A) (A) (A)
                 (A) (A) (A) (A) (A) (A) (A) (A) (A) (A) (A) (A)
                 (A) (A) (A) (A) (A) (A) (A) (A) (A) (A) (A) (A)
                 (A) (A) (A) (A) (A) (A) (A) (A) (A) (A) (A) (A)
                 (A) (A) (A) (A) (A) (A) (A) (A) (A) (A) (A) (A)
                 (A) (A) (A) (A) (A) (A) (A) (A) (A) (A) (A) (A)
                 (A) (A) (A) (A) (A) (A) (A) (A) (A) (A) (A) (A)
                 (A) (A) (A) (A) (A) (A) (A) (A) (A) (A) (A) (A)
                 (A) (A) (A) (A) (A) (A) (A) (A) (A) (A) (A) (A)
                 (A) (A) (A) (A) (A) (A) (A) (A) (A) (A) (A) (A)
                 (A) (A) (A) (A) (A) (A) (A) (A) (A) (A) (A) (A)
                 (A) (A) (A) (A) (A) (A) (A) (A) (A) (A) (A) (A)
                 (A) (A) (A) (A) (A) (A) (A) (A) (A) (A) (A) (A)
                 (A) (A) (A) (A) (A) (A) (A) (A) (A) (A) (A) (A)
                 (A) (A) (A) (A) (A) (A) (A) (A) (A) (A) (A) (A)
                 (A) (A) (A) (A) (A) (A) (A) (A) (A) (A) (A) (A)
                 (A) (A) (A) (A) (A) (A) (A) (A) (A) (A) (A) (A)
                 (A) (A) (A) (A) (A) (A) (A) (A) (A) (A) (A) (A)
                 (A) (A) (A) (A) (A) (A) (A) (A) (A) (A) (A) (A)
                 (A) (A) (A) (A) (A) (A) (A) (A) (A) (A) (A) (A)
                 (A) (A) (A) (A) (A) (A) (A) (A) (A) (A) (A) (A)
                 (A) (A) (A) (A) (A) (A) (A) (A) (A) (A) (A) (A)
                 (A) (A) (A) (A) (A) (A) (A) (A) (A) (A) (A) (A)
                 (A) (A) (A) (A) (A) (A) (A) (A) (A) (A) (A) (A)
                 (A) (A) (A) (A) (A) (A) (A) (A) (A) (A) (A) (A)
                 (A) (A) (A) (A) (A) (A) (A) (A) (A) (A) (A) (A)
                 (A) (A) (A) (A) (A) (A) (A) (A) (A) (A) (A) (A)
                 (A) (A) (A) (A) (A) (A) (A) (A) (A) (A) (A) (A)
                 (A) (A) (A) (A) (A) (A) (A) (A) (A) (A) (A) (A)
                 (A) (A) (A) (A) (A) (A) (A) (A) (A) (A) (A) (A)
                 (A) (A) (A) (A) (A) (A) (A) (A) (A) (A) (A) (A)
                 (A) (A) (A) (A) (A) (A) (A) (A) (A) (A) (A) (A)
                 (A) (A) (A) (A) (A) (A) (A) (A) (A) (A) (A) (A)
                 (A) (A) (A) (A) (A) (A) (A) (A) (A) (A) (A) (A)
                 (A) (A) (A) (A) (A) (A) (A) (A) (A) (A) (A) (A)
                 (A) (A) (A) (A) (A) (A) (A) (A) (A) (A) (A) (A)
                 (A) (A) (A) (A) (A) (A) (A) (A) (A) (A) (A) (A)
                 (A) (A) (A) (A) (A) (A) (A) (A) (A) (A) (A) (A)
                 (A) (A) (A) (A) (A) (A) (A) (A) (A) (A) (A) (A)
                 (A) (A) (A) (A) (A) (A) (A) (A) (A) (A) (A) (A)
                 (A) (A) (A) (A) (A) (A) (A) (A) (A) (A) (A) (A)
                 (A) (A) (A) (A) (A) (A) (A) (A) (A) (A) (A) (A)
                 (A) (A) (A) (A) (A) (A) (A) (A) (A) (A) (A) (A)
                 (A) (A) (A) (A) (A) (A) (A) (A) (A) (A) (A) (A)
                 (A) (A) (A) (A) (A) (A) (A) (A) (A) (A) (A) (A)
                 (A) (A) (A) (A) (A) (A) (A) (A) (A) (A) (A) (A)
                 (A) (A) (A) (A) (A) (A) (A) (A) (A) (A) (A) (A)
                 (A) (A) (A) (A) (A) (A) (A) (A) (A) (A) (A) (A)
                 (A) (A) (A) (A) (A) (A) (A) (A) (A) (A) (A) (A)
                 (A) (A) (A) (A) (A) (A) (A) (A) (A) (A) (A) (A)
                 (A) (A) (A) (A) (A) (A) (A) (A) (A) (A) (A) (A)
                 (A) (A) (A) (A) (A) (A) (A) (A) (A) (A) (A) (A)
                 (A) (A) (A) (A) (A) (A) (A) (A) (A) (A) (A) (A)
                 (A) (A) (A) (A) (A) (A) (A) (A) (A) (A) (A) (A)
                 (A) (A) (A) (A) (A) (A) (A) (A) (A) (A) (A) (A)
                 (A) (A) (A) (A) (A) (A) (A) (A) (A) (A) (A) (A)
                 (A) (A) (A) (A) (A) (A) (A) (A) (A) (A) (A) (A)
                 (A) (A) (A) (A) (A) (A) (A) (A) (A) (A) (A) (A)
                 (A) (A) (A) (A) (A) (A) (A) (A) (A) (A) (A) (A)
                 (A) (A) (A) (A) (A) (A) (A) (A) (A) (A) (A) (A)
                 (A) (A) (A) (A) (A) (A) (A) (A) (A) (A) (A) (A)
                 (A) (A) (A) (A) (A) (A) (A) (A) (A) (A) (A) (A)
                 (A) (A) (A) (A) (A) (A) (A) (A) (A) (A) (A) (A)
                 (A) (A) (A) (A) (A) (A) (A) (A) (A) (A) (A) (A)
                 (A) (A) (A) (A) (A) (A) (A) (A) (A) (A) (A) (A)
                 (A) (A) (A) (A) (A) (A) (A) (A) (A) (A) (A) (A)
                 (A) (A) (A) (A) (A) (A) (A) (A) (A) (A) (A) (A)
                 (A) (A) (A) (A) (A) (A) (A) (A) (A) (A) (A) (A)
                 (A) (A) (A) (A) (A) (A) (A) (A) (A) (A) (A) (A)
                 (A) (A) (A) (A) (A) (A) (A) (A) (A) (A) (A) (A)
                 (A) (A) (A) (A) (A) (A) (A) (A) (A) (A) (A) (A)
                 (A) (A) (A) (A) (A) (A) (A) (A) (A) (A) (A) (A)
                 (A) (A) (A) (A) (A) (A) (A) (A) (A) (A) (A) (A)
                 (A) (A) (A) (A) (A) (A) (A) (A) (A) (A) (A) (A)
                 (A) (A) (A) (A) (A) (A) (A) (A) (A) (A) (A) (A)
                 (A) (A) (A) (A) (A) (A) (A) (A) (A) (A) (A) (A)
                 (A) (A) (A) (A) (A) (A) (A) (A) (A) (A) (A) (A)
                 (A) (A) (A) (A) (A) (A) (A) (A) (A) (A) (A) (A)
                 (A) (A) (A) (A) (A) (A) (A) (A) (A) (A) (A) (A)
                 (A) (A) (A) (A) (A) (A) (A) (A) (A) (A) (A) (A)
                 (A) (A) (A) (A) (A) (A) (A) (A) (A) (A) (A) (A)
                 (A) (A) (A) (A) (A) (A) (A) (A) (A) (A) (A) (A)
                 (A) (A) (A) (A) (A) (A) (A) (A) (A) (A) (A) (A)
                 (A) (A) (A) (A) (A) (A) (A) (A) (A) (A) (A) (A)
                 (A) (A) (A) (A) (A) (A) (A) (A) (A) (A) (A) (A)
                 (A) (A) (A) (A) (A) (A) (A) (A) (A) (A) (A) (A)
                 (A) (A) (A) (A) (A) (A) (A) (A) (A) (A) (A) (A)
                 (A) (A) (A) (A) (A) (A) (A) (A) (A) (A) (A) (A)
                 (A) (A) (A) (A) (A) (A) (A) (A) (A) (A) (A) (A)
                 (A) (A) (A) (A) (A) (A) (A) (A) (A) (A) (A) (A)
                 (A) (A) (A) (A) (A) (A) (A) (A) (A) (A) (A) (A)
                 (A) (A) (A) (A) (A) (A) (A) (A) (A) (A) (A) (A)
                 (A) (A) (A) (A) (A) (A) (A) (A) (A) (A) (A) (A)
                 (A) (A) (A) (A) (A) (A) (A) (A)
 Beta  Orbitals:
       Occupied  (A) (A) (A) (A) (A) (A) (A) (A) (A) (A) (A) (A)
                 (A) (A) (A) (A) (A) (A) (A) (A) (A) (A) (A) (A)
                 (A) (A) (A) (A) (A) (A) (A) (A) (A) (A) (A) (A)
                 (A) (A) (A) (A) (A) (A) (A) (A) (A) (A) (A) (A)
                 (A) (A) (A) (A) (A) (A) (A) (A) (A) (A) (A) (A)
                 (A) (A) (A) (A) (A) (A) (A) (A) (A) (A) (A) (A)
                 (A) (A) (A) (A) (A) (A) (A) (A) (A) (A) (A) (A)
                 (A) (A) (A) (A) (A) (A) (A) (A) (A) (A) (A) (A)
                 (A) (A) (A) (A) (A) (A) (A) (A) (A) (A) (A) (A)
                 (A) (A) (A) (A) (A) (A) (A) (A) (A) (A) (A) (A)
                 (A) (A) (A) (A) (A) (A) (A) (A) (A) (A) (A) (A)
                 (A) (A) (A) (A) (A) (A) (A) (A) (A) (A) (A) (A)
                 (A) (A) (A) (A) (A) (A) (A) (A) (A) (A) (A) (A)
                 (A) (A) (A) (A) (A) (A) (A) (A) (A) (A) (A) (A)
                 (A) (A) (A) (A) (A) (A) (A) (A) (A) (A) (A) (A)
                 (A) (A) (A) (A) (A) (A) (A)
       Virtual   (A) (A) (A) (A) (A) (A) (A) (A) (A) (A) (A) (A)
                 (A) (A) (A) (A) (A) (A) (A) (A) (A) (A) (A) (A)
                 (A) (A) (A) (A) (A) (A) (A) (A) (A) (A) (A) (A)
                 (A) (A) (A) (A) (A) (A) (A) (A) (A) (A) (A) (A)
                 (A) (A) (A) (A) (A) (A) (A) (A) (A) (A) (A) (A)
                 (A) (A) (A) (A) (A) (A) (A) (A) (A) (A) (A) (A)
                 (A) (A) (A) (A) (A) (A) (A) (A) (A) (A) (A) (A)
                 (A) (A) (A) (A) (A) (A) (A) (A) (A) (A) (A) (A)
                 (A) (A) (A) (A) (A) (A) (A) (A) (A) (A) (A) (A)
                 (A) (A) (A) (A) (A) (A) (A) (A) (A) (A) (A) (A)
                 (A) (A) (A) (A) (A) (A) (A) (A) (A) (A) (A) (A)
                 (A) (A) (A) (A) (A) (A) (A) (A) (A) (A) (A) (A)
                 (A) (A) (A) (A) (A) (A) (A) (A) (A) (A) (A) (A)
                 (A) (A) (A) (A) (A) (A) (A) (A) (A) (A) (A) (A)
                 (A) (A) (A) (A) (A) (A) (A) (A) (A) (A) (A) (A)
                 (A) (A) (A) (A) (A) (A) (A) (A) (A) (A) (A) (A)
                 (A) (A) (A) (A) (A) (A) (A) (A) (A) (A) (A) (A)
                 (A) (A) (A) (A) (A) (A) (A) (A) (A) (A) (A) (A)
                 (A) (A) (A) (A) (A) (A) (A) (A) (A) (A) (A) (A)
                 (A) (A) (A) (A) (A) (A) (A) (A) (A) (A) (A) (A)
                 (A) (A) (A) (A) (A) (A) (A) (A) (A) (A) (A) (A)
                 (A) (A) (A) (A) (A) (A) (A) (A) (A) (A) (A) (A)
                 (A) (A) (A) (A) (A) (A) (A) (A) (A) (A) (A) (A)
                 (A) (A) (A) (A) (A) (A) (A) (A) (A) (A) (A) (A)
                 (A) (A) (A) (A) (A) (A) (A) (A) (A) (A) (A) (A)
                 (A) (A) (A) (A) (A) (A) (A) (A) (A) (A) (A) (A)
                 (A) (A) (A) (A) (A) (A) (A) (A) (A) (A) (A) (A)
                 (A) (A) (A) (A) (A) (A) (A) (A) (A) (A) (A) (A)
                 (A) (A) (A) (A) (A) (A) (A) (A) (A) (A) (A) (A)
                 (A) (A) (A) (A) (A) (A) (A) (A) (A) (A) (A) (A)
                 (A) (A) (A) (A) (A) (A) (A) (A) (A) (A) (A) (A)
                 (A) (A) (A) (A) (A) (A) (A) (A) (A) (A) (A) (A)
                 (A) (A) (A) (A) (A) (A) (A) (A) (A) (A) (A) (A)
                 (A) (A) (A) (A) (A) (A) (A) (A) (A) (A) (A) (A)
                 (A) (A) (A) (A) (A) (A) (A) (A) (A) (A) (A) (A)
                 (A) (A) (A) (A) (A) (A) (A) (A) (A) (A) (A) (A)
                 (A) (A) (A) (A) (A) (A) (A) (A) (A) (A) (A) (A)
                 (A) (A) (A) (A) (A) (A) (A) (A) (A) (A) (A) (A)
                 (A) (A) (A) (A) (A) (A) (A) (A) (A) (A) (A) (A)
                 (A) (A) (A) (A) (A) (A) (A) (A) (A) (A) (A) (A)
                 (A) (A) (A) (A) (A) (A) (A) (A) (A) (A) (A) (A)
                 (A) (A) (A) (A) (A) (A) (A) (A) (A) (A) (A) (A)
                 (A) (A) (A) (A) (A) (A) (A) (A) (A) (A) (A) (A)
                 (A) (A) (A) (A) (A) (A) (A) (A) (A) (A) (A) (A)
                 (A) (A) (A) (A) (A) (A) (A) (A) (A) (A) (A) (A)
                 (A) (A) (A) (A) (A) (A) (A) (A) (A) (A) (A) (A)
                 (A) (A) (A) (A) (A) (A) (A) (A) (A) (A) (A) (A)
                 (A) (A) (A) (A) (A) (A) (A) (A) (A) (A) (A) (A)
                 (A) (A) (A) (A) (A) (A) (A) (A) (A) (A) (A) (A)
                 (A) (A) (A) (A) (A) (A) (A) (A) (A) (A) (A) (A)
                 (A) (A) (A) (A) (A) (A) (A) (A) (A) (A) (A) (A)
                 (A) (A) (A) (A) (A) (A) (A) (A) (A) (A) (A) (A)
                 (A) (A) (A) (A) (A) (A) (A) (A) (A) (A) (A) (A)
                 (A) (A) (A) (A) (A) (A) (A) (A) (A) (A) (A) (A)
                 (A) (A) (A) (A) (A) (A) (A) (A) (A) (A) (A) (A)
                 (A) (A) (A) (A) (A) (A) (A) (A) (A) (A) (A) (A)
                 (A) (A) (A) (A) (A) (A) (A) (A) (A) (A) (A) (A)
                 (A) (A) (A) (A) (A) (A) (A) (A) (A) (A) (A) (A)
                 (A) (A) (A) (A) (A) (A) (A) (A) (A) (A) (A) (A)
                 (A) (A) (A) (A) (A) (A) (A) (A) (A) (A) (A) (A)
                 (A) (A) (A) (A) (A) (A) (A) (A) (A) (A) (A) (A)
                 (A) (A) (A) (A) (A) (A) (A) (A) (A) (A) (A) (A)
                 (A) (A) (A) (A) (A) (A) (A) (A) (A) (A) (A) (A)
                 (A) (A) (A) (A) (A) (A) (A) (A) (A) (A) (A) (A)
                 (A) (A) (A) (A) (A) (A) (A) (A) (A) (A) (A) (A)
                 (A) (A) (A) (A) (A) (A) (A) (A) (A) (A) (A) (A)
                 (A) (A) (A) (A) (A) (A) (A) (A) (A) (A) (A) (A)
                 (A) (A) (A) (A) (A) (A) (A) (A) (A) (A) (A) (A)
                 (A) (A) (A) (A) (A) (A) (A) (A) (A) (A) (A) (A)
                 (A) (A) (A) (A) (A) (A) (A) (A) (A) (A) (A) (A)
                 (A) (A) (A) (A) (A) (A) (A) (A) (A) (A) (A) (A)
                 (A) (A) (A) (A) (A) (A) (A) (A) (A) (A) (A) (A)
                 (A) (A) (A) (A) (A) (A) (A) (A) (A) (A) (A) (A)
                 (A) (A) (A) (A) (A) (A) (A) (A) (A) (A) (A) (A)
                 (A) (A) (A) (A) (A) (A) (A) (A) (A) (A) (A) (A)
                 (A) (A) (A) (A) (A) (A) (A) (A) (A) (A) (A) (A)
                 (A) (A) (A) (A) (A) (A) (A) (A) (A) (A) (A) (A)
                 (A) (A) (A) (A) (A) (A) (A) (A) (A) (A) (A) (A)
                 (A) (A) (A) (A) (A) (A) (A) (A) (A) (A) (A) (A)
                 (A) (A) (A) (A) (A) (A) (A) (A) (A) (A) (A) (A)
                 (A) (A) (A) (A) (A) (A) (A) (A) (A) (A) (A) (A)
                 (A) (A) (A) (A) (A) (A) (A) (A) (A) (A) (A) (A)
                 (A) (A) (A) (A) (A) (A) (A) (A) (A) (A) (A) (A)
                 (A) (A) (A) (A) (A) (A) (A) (A) (A) (A) (A) (A)
                 (A) (A) (A) (A) (A) (A) (A) (A) (A) (A) (A) (A)
                 (A) (A) (A) (A) (A) (A) (A) (A) (A) (A) (A) (A)
                 (A) (A) (A) (A) (A) (A) (A) (A) (A) (A) (A) (A)
                 (A) (A) (A) (A) (A) (A) (A) (A) (A) (A) (A) (A)
                 (A) (A) (A) (A) (A) (A) (A) (A) (A) (A) (A) (A)
                 (A) (A) (A) (A) (A) (A) (A) (A) (A) (A) (A) (A)
                 (A) (A) (A) (A) (A) (A) (A) (A) (A) (A) (A) (A)
                 (A) (A) (A) (A) (A) (A) (A) (A) (A) (A) (A) (A)
                 (A) (A) (A) (A) (A) (A) (A) (A) (A) (A) (A) (A)
                 (A) (A) (A) (A) (A) (A) (A) (A) (A) (A) (A) (A)
                 (A) (A) (A) (A) (A) (A) (A) (A) (A) (A) (A) (A)
                 (A) (A) (A) (A) (A) (A) (A) (A) (A) (A) (A) (A)
                 (A) (A) (A) (A) (A) (A) (A) (A) (A) (A) (A) (A)
                 (A) (A) (A) (A) (A) (A) (A) (A) (A) (A) (A) (A)
                 (A) (A) (A) (A) (A) (A) (A) (A) (A) (A) (A) (A)
                 (A) (A) (A) (A) (A) (A) (A) (A) (A) (A) (A) (A)
                 (A) (A) (A) (A) (A) (A) (A) (A) (A) (A) (A) (A)
                 (A) (A) (A) (A) (A) (A) (A) (A) (A) (A) (A) (A)
                 (A) (A) (A) (A) (A) (A) (A) (A) (A) (A) (A) (A)
                 (A) (A) (A) (A) (A) (A) (A) (A) (A) (A) (A) (A)
                 (A) (A) (A) (A) (A) (A) (A) (A) (A) (A) (A) (A)
                 (A) (A) (A) (A) (A) (A) (A) (A) (A) (A) (A) (A)
                 (A) (A) (A) (A) (A) (A) (A) (A) (A) (A) (A) (A)
                 (A) (A) (A) (A) (A) (A) (A) (A) (A) (A) (A) (A)
                 (A) (A) (A) (A) (A) (A) (A) (A) (A) (A) (A) (A)
                 (A) (A) (A) (A) (A) (A) (A) (A) (A) (A) (A) (A)
                 (A) (A) (A) (A) (A) (A) (A) (A) (A) (A) (A) (A)
                 (A) (A) (A) (A) (A) (A) (A) (A) (A) (A) (A) (A)
                 (A) (A) (A) (A) (A) (A) (A) (A) (A) (A) (A) (A)
                 (A) (A) (A) (A) (A) (A) (A) (A) (A) (A) (A) (A)
                 (A) (A) (A) (A) (A) (A) (A) (A) (A) (A) (A) (A)
                 (A) (A) (A) (A) (A) (A) (A) (A) (A) (A) (A) (A)
                 (A) (A) (A) (A) (A) (A) (A) (A) (A) (A) (A) (A)
                 (A) (A) (A) (A) (A) (A) (A) (A) (A) (A) (A) (A)
                 (A) (A) (A) (A) (A) (A) (A) (A) (A) (A) (A) (A)
                 (A) (A) (A) (A) (A) (A) (A) (A) (A) (A) (A) (A)
                 (A) (A) (A) (A) (A) (A) (A) (A) (A) (A) (A) (A)
                 (A) (A) (A) (A) (A) (A) (A) (A) (A) (A) (A) (A)
                 (A) (A) (A) (A) (A) (A) (A) (A) (A) (A) (A) (A)
                 (A) (A) (A) (A) (A) (A) (A) (A) (A) (A) (A) (A)
                 (A) (A) (A) (A) (A) (A) (A) (A) (A) (A) (A) (A)
                 (A) (A) (A) (A) (A) (A) (A) (A) (A) (A) (A) (A)
                 (A) (A) (A) (A) (A) (A) (A) (A) (A) (A) (A) (A)
                 (A) (A) (A) (A) (A) (A) (A) (A) (A) (A) (A) (A)
                 (A) (A) (A) (A) (A) (A) (A) (A) (A) (A) (A) (A)
                 (A) (A) (A) (A) (A) (A) (A) (A) (A) (A) (A) (A)
                 (A) (A) (A) (A) (A) (A) (A) (A) (A) (A) (A) (A)
                 (A) (A) (A) (A) (A) (A) (A) (A) (A) (A) (A) (A)
                 (A) (A) (A) (A) (A) (A) (A) (A) (A) (A) (A) (A)
                 (A) (A) (A) (A) (A) (A) (A) (A) (A) (A) (A) (A)
                 (A) (A) (A) (A) (A) (A) (A) (A) (A)
 The electronic state is 2-A.
 Alpha  occ. eigenvalues -- -256.44683 -30.23352 -26.06513 -26.05983 -26.04488
 Alpha  occ. eigenvalues --  -19.29267 -19.26296 -19.25703 -19.18776 -19.18552
 Alpha  occ. eigenvalues --  -14.46842 -14.43403 -14.41174 -14.41144 -14.40554
 Alpha  occ. eigenvalues --  -14.40357 -10.35905 -10.35558 -10.30408 -10.28265
 Alpha  occ. eigenvalues --  -10.28095 -10.27647 -10.27645 -10.27621 -10.27541
 Alpha  occ. eigenvalues --  -10.27169 -10.27102 -10.27050 -10.25818 -10.25626
 Alpha  occ. eigenvalues --  -10.25508 -10.25498 -10.25468 -10.25195 -10.25118
 Alpha  occ. eigenvalues --  -10.25116 -10.25043 -10.24975 -10.24796 -10.24780
 Alpha  occ. eigenvalues --  -10.24694 -10.24626 -10.24509 -10.24483 -10.24414
 Alpha  occ. eigenvalues --  -10.24211 -10.24182 -10.23783 -10.23673 -10.23491
 Alpha  occ. eigenvalues --  -10.22912 -10.22816 -10.22781 -10.22439  -3.59007
 Alpha  occ. eigenvalues --   -2.36416  -2.35128  -2.31966  -1.19285  -1.18943
 Alpha  occ. eigenvalues --   -1.12904  -1.11734  -1.05011  -1.04323  -1.04010
 Alpha  occ. eigenvalues --   -1.03265  -1.02814  -1.02190  -0.96183  -0.87379
 Alpha  occ. eigenvalues --   -0.85947  -0.85841  -0.85483  -0.85116  -0.84492
 Alpha  occ. eigenvalues --   -0.84226  -0.83050  -0.81548  -0.80864  -0.79620
 Alpha  occ. eigenvalues --   -0.78411  -0.78232  -0.76595  -0.74723  -0.74557
 Alpha  occ. eigenvalues --   -0.74425  -0.73860  -0.72534  -0.71394  -0.71037
 Alpha  occ. eigenvalues --   -0.69520  -0.69447  -0.68656  -0.67363  -0.67044
 Alpha  occ. eigenvalues --   -0.65718  -0.65626  -0.64898  -0.63925  -0.62145
 Alpha  occ. eigenvalues --   -0.61915  -0.59732  -0.59492  -0.58376  -0.57637
 Alpha  occ. eigenvalues --   -0.56886  -0.55728  -0.55552  -0.55264  -0.54876
 Alpha  occ. eigenvalues --   -0.54093  -0.53593  -0.52794  -0.52414  -0.52169
 Alpha  occ. eigenvalues --   -0.52050  -0.51759  -0.51145  -0.50702  -0.50555
 Alpha  occ. eigenvalues --   -0.49278  -0.48782  -0.48587  -0.48439  -0.47919
 Alpha  occ. eigenvalues --   -0.47883  -0.47450  -0.47238  -0.46985  -0.46624
 Alpha  occ. eigenvalues --   -0.46519  -0.46203  -0.45680  -0.45565  -0.45237
 Alpha  occ. eigenvalues --   -0.44649  -0.44547  -0.44322  -0.44151  -0.44034
 Alpha  occ. eigenvalues --   -0.43669  -0.43619  -0.43454  -0.43215  -0.42995
 Alpha  occ. eigenvalues --   -0.42882  -0.42683  -0.42197  -0.42080  -0.41460
 Alpha  occ. eigenvalues --   -0.41255  -0.41038  -0.40830  -0.40263  -0.40068
 Alpha  occ. eigenvalues --   -0.39954  -0.39783  -0.39640  -0.39222  -0.38830
 Alpha  occ. eigenvalues --   -0.38705  -0.38497  -0.37978  -0.37658  -0.37296
 Alpha  occ. eigenvalues --   -0.36269  -0.36014  -0.35770  -0.35207  -0.34892
 Alpha  occ. eigenvalues --   -0.34482  -0.34256  -0.34068  -0.33734  -0.33441
 Alpha  occ. eigenvalues --   -0.32635  -0.32211  -0.30473  -0.29865  -0.29134
 Alpha  occ. eigenvalues --   -0.29086  -0.26793  -0.26448  -0.26073  -0.24461
 Alpha  occ. eigenvalues --   -0.23707  -0.22585  -0.22108
 Alpha virt. eigenvalues --   -0.11604  -0.11448  -0.09292  -0.08302  -0.07725
 Alpha virt. eigenvalues --   -0.05292  -0.02305  -0.01069  -0.00884  -0.00226
 Alpha virt. eigenvalues --   -0.00158   0.02652   0.02816   0.03169   0.03253
 Alpha virt. eigenvalues --    0.03408   0.04132   0.04359   0.04557   0.05173
 Alpha virt. eigenvalues --    0.05442   0.05742   0.05959   0.06454   0.06780
 Alpha virt. eigenvalues --    0.06878   0.07173   0.07515   0.07559   0.08028
 Alpha virt. eigenvalues --    0.08215   0.08368   0.08980   0.09098   0.09556
 Alpha virt. eigenvalues --    0.09818   0.10045   0.10316   0.10665   0.10978
 Alpha virt. eigenvalues --    0.11239   0.11448   0.11655   0.11745   0.11954
 Alpha virt. eigenvalues --    0.12041   0.12450   0.12576   0.12670   0.13021
 Alpha virt. eigenvalues --    0.13096   0.13307   0.13656   0.13700   0.13723
 Alpha virt. eigenvalues --    0.13892   0.14325   0.14449   0.14701   0.14820
 Alpha virt. eigenvalues --    0.15270   0.15415   0.15856   0.15890   0.16082
 Alpha virt. eigenvalues --    0.16412   0.16847   0.17017   0.17278   0.17341
 Alpha virt. eigenvalues --    0.17708   0.17758   0.17988   0.18272   0.18444
 Alpha virt. eigenvalues --    0.18601   0.18809   0.19026   0.19389   0.19579
 Alpha virt. eigenvalues --    0.19704   0.20114   0.20243   0.20581   0.20617
 Alpha virt. eigenvalues --    0.20792   0.21015   0.21411   0.21564   0.21653
 Alpha virt. eigenvalues --    0.21947   0.22068   0.22241   0.22532   0.22696
 Alpha virt. eigenvalues --    0.23149   0.23240   0.23365   0.23708   0.23906
 Alpha virt. eigenvalues --    0.24063   0.24505   0.24601   0.25014   0.25187
 Alpha virt. eigenvalues --    0.25340   0.25393   0.25639   0.25772   0.25871
 Alpha virt. eigenvalues --    0.26156   0.26449   0.26769   0.26838   0.27027
 Alpha virt. eigenvalues --    0.27223   0.27560   0.27810   0.28021   0.28189
 Alpha virt. eigenvalues --    0.28276   0.28708   0.28855   0.28979   0.29267
 Alpha virt. eigenvalues --    0.29590   0.29705   0.30044   0.30620   0.30890
 Alpha virt. eigenvalues --    0.31282   0.31444   0.31625   0.31880   0.32086
 Alpha virt. eigenvalues --    0.32197   0.32343   0.32736   0.32970   0.33307
 Alpha virt. eigenvalues --    0.33589   0.33687   0.33897   0.34164   0.34358
 Alpha virt. eigenvalues --    0.34408   0.34969   0.35109   0.35393   0.36026
 Alpha virt. eigenvalues --    0.36347   0.36454   0.36478   0.36752   0.36889
 Alpha virt. eigenvalues --    0.37144   0.37429   0.37603   0.37768   0.38007
 Alpha virt. eigenvalues --    0.38285   0.38508   0.38673   0.38963   0.39121
 Alpha virt. eigenvalues --    0.39371   0.39469   0.39790   0.39858   0.40028
 Alpha virt. eigenvalues --    0.40306   0.40498   0.40699   0.40864   0.41167
 Alpha virt. eigenvalues --    0.41468   0.41517   0.41737   0.42143   0.42269
 Alpha virt. eigenvalues --    0.42393   0.42554   0.42744   0.42937   0.43245
 Alpha virt. eigenvalues --    0.43414   0.43479   0.43620   0.43778   0.43851
 Alpha virt. eigenvalues --    0.44061   0.44500   0.44717   0.44911   0.45198
 Alpha virt. eigenvalues --    0.45299   0.45482   0.45656   0.45788   0.45968
 Alpha virt. eigenvalues --    0.46325   0.46514   0.46692   0.47004   0.47130
 Alpha virt. eigenvalues --    0.47228   0.47369   0.47397   0.47673   0.47732
 Alpha virt. eigenvalues --    0.48075   0.48258   0.48276   0.48634   0.49089
 Alpha virt. eigenvalues --    0.49304   0.49557   0.49615   0.49755   0.49834
 Alpha virt. eigenvalues --    0.50059   0.50199   0.50466   0.50579   0.50615
 Alpha virt. eigenvalues --    0.50918   0.51138   0.51365   0.51506   0.51670
 Alpha virt. eigenvalues --    0.51937   0.52214   0.52294   0.52340   0.52400
 Alpha virt. eigenvalues --    0.52678   0.52892   0.53169   0.53346   0.53591
 Alpha virt. eigenvalues --    0.53759   0.53905   0.54324   0.54484   0.54689
 Alpha virt. eigenvalues --    0.54943   0.55195   0.55345   0.55812   0.55899
 Alpha virt. eigenvalues --    0.56153   0.56486   0.56548   0.57002   0.57208
 Alpha virt. eigenvalues --    0.57225   0.57409   0.57606   0.57791   0.57993
 Alpha virt. eigenvalues --    0.58419   0.58704   0.58891   0.59014   0.59613
 Alpha virt. eigenvalues --    0.59808   0.59875   0.60206   0.60358   0.60830
 Alpha virt. eigenvalues --    0.61214   0.61321   0.61462   0.61655   0.61888
 Alpha virt. eigenvalues --    0.62612   0.62681   0.62829   0.63084   0.63343
 Alpha virt. eigenvalues --    0.63730   0.63821   0.63948   0.64124   0.64568
 Alpha virt. eigenvalues --    0.64747   0.64987   0.65415   0.65550   0.65889
 Alpha virt. eigenvalues --    0.66231   0.66494   0.66596   0.67003   0.67152
 Alpha virt. eigenvalues --    0.67536   0.67696   0.67899   0.68399   0.68470
 Alpha virt. eigenvalues --    0.68880   0.69030   0.69367   0.69564   0.69771
 Alpha virt. eigenvalues --    0.70327   0.70475   0.70650   0.71055   0.71276
 Alpha virt. eigenvalues --    0.71399   0.71887   0.72160   0.72821   0.73147
 Alpha virt. eigenvalues --    0.73452   0.73578   0.73737   0.73994   0.74550
 Alpha virt. eigenvalues --    0.74850   0.74985   0.75387   0.75398   0.75451
 Alpha virt. eigenvalues --    0.75749   0.76191   0.76618   0.76839   0.77009
 Alpha virt. eigenvalues --    0.77442   0.77656   0.77832   0.78205   0.78517
 Alpha virt. eigenvalues --    0.78969   0.79097   0.79397   0.79620   0.80154
 Alpha virt. eigenvalues --    0.80552   0.80750   0.81061   0.81325   0.81380
 Alpha virt. eigenvalues --    0.81490   0.81995   0.82491   0.82665   0.83304
 Alpha virt. eigenvalues --    0.83386   0.83817   0.83988   0.84591   0.84943
 Alpha virt. eigenvalues --    0.85414   0.85599   0.85855   0.86257   0.86381
 Alpha virt. eigenvalues --    0.86678   0.86995   0.87589   0.87816   0.88106
 Alpha virt. eigenvalues --    0.88540   0.88851   0.88969   0.89607   0.90046
 Alpha virt. eigenvalues --    0.90391   0.90537   0.90866   0.91391   0.91620
 Alpha virt. eigenvalues --    0.91839   0.92029   0.92237   0.92989   0.93291
 Alpha virt. eigenvalues --    0.93656   0.93745   0.93899   0.94421   0.94780
 Alpha virt. eigenvalues --    0.95018   0.95283   0.95707   0.96034   0.96290
 Alpha virt. eigenvalues --    0.96421   0.96778   0.97266   0.97661   0.97775
 Alpha virt. eigenvalues --    0.98255   0.98369   0.98658   0.99017   0.99154
 Alpha virt. eigenvalues --    0.99413   0.99677   1.00053   1.00207   1.00487
 Alpha virt. eigenvalues --    1.00966   1.01156   1.01343   1.01761   1.01825
 Alpha virt. eigenvalues --    1.02377   1.02826   1.03044   1.03138   1.03562
 Alpha virt. eigenvalues --    1.03687   1.04069   1.04435   1.04903   1.05123
 Alpha virt. eigenvalues --    1.05273   1.06004   1.06088   1.06512   1.06797
 Alpha virt. eigenvalues --    1.06886   1.07310   1.07407   1.07873   1.08411
 Alpha virt. eigenvalues --    1.08788   1.09107   1.09304   1.09536   1.09974
 Alpha virt. eigenvalues --    1.10153   1.10575   1.10903   1.11232   1.11792
 Alpha virt. eigenvalues --    1.12371   1.12584   1.12657   1.13035   1.13401
 Alpha virt. eigenvalues --    1.13671   1.13873   1.14131   1.14713   1.15132
 Alpha virt. eigenvalues --    1.15564   1.16041   1.16503   1.16642   1.16990
 Alpha virt. eigenvalues --    1.17728   1.18070   1.18332   1.18377   1.19456
 Alpha virt. eigenvalues --    1.19910   1.20000   1.20777   1.21138   1.21473
 Alpha virt. eigenvalues --    1.21568   1.22203   1.22442   1.22651   1.23161
 Alpha virt. eigenvalues --    1.23512   1.23983   1.24202   1.24465   1.24684
 Alpha virt. eigenvalues --    1.25266   1.25649   1.25920   1.26208   1.26850
 Alpha virt. eigenvalues --    1.26926   1.27542   1.27977   1.28632   1.28710
 Alpha virt. eigenvalues --    1.29237   1.29621   1.29903   1.30120   1.31165
 Alpha virt. eigenvalues --    1.31420   1.32160   1.32324   1.32634   1.33057
 Alpha virt. eigenvalues --    1.33323   1.33533   1.33728   1.34384   1.34867
 Alpha virt. eigenvalues --    1.35125   1.35438   1.35627   1.36490   1.36615
 Alpha virt. eigenvalues --    1.37161   1.37483   1.37591   1.38583   1.38804
 Alpha virt. eigenvalues --    1.39947   1.40021   1.40251   1.40492   1.40825
 Alpha virt. eigenvalues --    1.41533   1.41705   1.42053   1.42306   1.42727
 Alpha virt. eigenvalues --    1.43224   1.43618   1.43946   1.44157   1.44445
 Alpha virt. eigenvalues --    1.44764   1.44947   1.45404   1.45565   1.45700
 Alpha virt. eigenvalues --    1.46065   1.46683   1.46891   1.47124   1.47425
 Alpha virt. eigenvalues --    1.47689   1.48006   1.48351   1.48663   1.48989
 Alpha virt. eigenvalues --    1.49625   1.49691   1.49965   1.50200   1.50534
 Alpha virt. eigenvalues --    1.50818   1.51373   1.51608   1.51776   1.51901
 Alpha virt. eigenvalues --    1.52354   1.52707   1.53292   1.53357   1.53532
 Alpha virt. eigenvalues --    1.53741   1.54043   1.54424   1.54784   1.54965
 Alpha virt. eigenvalues --    1.55060   1.55550   1.55811   1.55958   1.56252
 Alpha virt. eigenvalues --    1.56975   1.57003   1.57588   1.57791   1.58084
 Alpha virt. eigenvalues --    1.58273   1.58634   1.58797   1.59149   1.59405
 Alpha virt. eigenvalues --    1.59480   1.59799   1.60193   1.60415   1.60610
 Alpha virt. eigenvalues --    1.60859   1.60919   1.61205   1.61629   1.61822
 Alpha virt. eigenvalues --    1.61923   1.62241   1.62551   1.62849   1.62944
 Alpha virt. eigenvalues --    1.63555   1.63749   1.63895   1.64167   1.64398
 Alpha virt. eigenvalues --    1.65139   1.65220   1.65524   1.65642   1.66247
 Alpha virt. eigenvalues --    1.66890   1.67131   1.67497   1.67775   1.67958
 Alpha virt. eigenvalues --    1.68174   1.68395   1.68688   1.69089   1.69742
 Alpha virt. eigenvalues --    1.69903   1.70098   1.70719   1.70847   1.71146
 Alpha virt. eigenvalues --    1.71561   1.72058   1.72250   1.72656   1.72833
 Alpha virt. eigenvalues --    1.72935   1.73404   1.73662   1.73958   1.74405
 Alpha virt. eigenvalues --    1.75141   1.75654   1.75904   1.76757   1.77065
 Alpha virt. eigenvalues --    1.77726   1.77965   1.78285   1.78567   1.78985
 Alpha virt. eigenvalues --    1.79522   1.79973   1.80292   1.80706   1.80959
 Alpha virt. eigenvalues --    1.81223   1.81363   1.81865   1.82210   1.82902
 Alpha virt. eigenvalues --    1.83166   1.83336   1.83722   1.83894   1.84456
 Alpha virt. eigenvalues --    1.84947   1.85412   1.85669   1.86000   1.86417
 Alpha virt. eigenvalues --    1.86814   1.87136   1.87570   1.87993   1.88231
 Alpha virt. eigenvalues --    1.88547   1.88904   1.89441   1.89895   1.90189
 Alpha virt. eigenvalues --    1.90305   1.90975   1.91079   1.91614   1.92010
 Alpha virt. eigenvalues --    1.92423   1.92513   1.92957   1.93151   1.93579
 Alpha virt. eigenvalues --    1.93750   1.94807   1.95047   1.95277   1.95476
 Alpha virt. eigenvalues --    1.95948   1.96144   1.96510   1.96598   1.96820
 Alpha virt. eigenvalues --    1.97606   1.97997   1.98668   1.98790   1.99278
 Alpha virt. eigenvalues --    1.99478   1.99525   1.99744   2.00139   2.00501
 Alpha virt. eigenvalues --    2.01056   2.01530   2.01581   2.02151   2.02718
 Alpha virt. eigenvalues --    2.03242   2.03395   2.03549   2.04007   2.04154
 Alpha virt. eigenvalues --    2.04611   2.05165   2.05475   2.05543   2.05960
 Alpha virt. eigenvalues --    2.06118   2.06929   2.07070   2.07385   2.07458
 Alpha virt. eigenvalues --    2.07565   2.08491   2.09278   2.09671   2.10147
 Alpha virt. eigenvalues --    2.10338   2.11130   2.12205   2.12310   2.12711
 Alpha virt. eigenvalues --    2.12861   2.13164   2.13560   2.14186   2.14376
 Alpha virt. eigenvalues --    2.14691   2.14952   2.15174   2.15589   2.15938
 Alpha virt. eigenvalues --    2.16330   2.16750   2.17003   2.17254   2.17929
 Alpha virt. eigenvalues --    2.18240   2.18732   2.19073   2.19169   2.20126
 Alpha virt. eigenvalues --    2.20181   2.20680   2.20760   2.21332   2.21762
 Alpha virt. eigenvalues --    2.21847   2.22718   2.23098   2.23496   2.23731
 Alpha virt. eigenvalues --    2.24354   2.24581   2.25281   2.25679   2.25896
 Alpha virt. eigenvalues --    2.26365   2.26768   2.27416   2.27764   2.28035
 Alpha virt. eigenvalues --    2.28679   2.29208   2.29352   2.29757   2.30298
 Alpha virt. eigenvalues --    2.30856   2.31330   2.31689   2.31859   2.32609
 Alpha virt. eigenvalues --    2.32954   2.33212   2.33405   2.34100   2.34315
 Alpha virt. eigenvalues --    2.35352   2.35943   2.36009   2.36722   2.36971
 Alpha virt. eigenvalues --    2.37230   2.37543   2.37903   2.38624   2.38826
 Alpha virt. eigenvalues --    2.38908   2.39572   2.39649   2.40250   2.40867
 Alpha virt. eigenvalues --    2.40919   2.41369   2.41825   2.42172   2.42922
 Alpha virt. eigenvalues --    2.43045   2.43473   2.43841   2.44056   2.44242
 Alpha virt. eigenvalues --    2.45078   2.45250   2.45545   2.45812   2.46089
 Alpha virt. eigenvalues --    2.47038   2.47394   2.47565   2.48149   2.48333
 Alpha virt. eigenvalues --    2.48987   2.49127   2.49710   2.50178   2.50414
 Alpha virt. eigenvalues --    2.50655   2.50934   2.51426   2.51679   2.52260
 Alpha virt. eigenvalues --    2.52386   2.52898   2.53220   2.53469   2.53864
 Alpha virt. eigenvalues --    2.54349   2.54477   2.54972   2.55102   2.55523
 Alpha virt. eigenvalues --    2.55894   2.56015   2.56515   2.56922   2.57480
 Alpha virt. eigenvalues --    2.57601   2.57870   2.58055   2.58511   2.58535
 Alpha virt. eigenvalues --    2.58900   2.58980   2.59705   2.60139   2.60383
 Alpha virt. eigenvalues --    2.60633   2.60975   2.61057   2.61360   2.61629
 Alpha virt. eigenvalues --    2.61782   2.62185   2.62856   2.63511   2.63839
 Alpha virt. eigenvalues --    2.64133   2.64481   2.64740   2.65251   2.65404
 Alpha virt. eigenvalues --    2.65738   2.66261   2.66310   2.66449   2.66873
 Alpha virt. eigenvalues --    2.67049   2.67825   2.68201   2.68292   2.68501
 Alpha virt. eigenvalues --    2.68705   2.69082   2.69172   2.70216   2.70594
 Alpha virt. eigenvalues --    2.70777   2.70929   2.71524   2.71718   2.71936
 Alpha virt. eigenvalues --    2.71995   2.72336   2.72819   2.72942   2.73567
 Alpha virt. eigenvalues --    2.74254   2.74721   2.75091   2.75437   2.75600
 Alpha virt. eigenvalues --    2.75923   2.76483   2.77026   2.77222   2.77674
 Alpha virt. eigenvalues --    2.77777   2.78194   2.78662   2.79506   2.79691
 Alpha virt. eigenvalues --    2.80038   2.80556   2.80684   2.80722   2.81244
 Alpha virt. eigenvalues --    2.81603   2.82203   2.82416   2.82855   2.83039
 Alpha virt. eigenvalues --    2.83595   2.83937   2.84290   2.84575   2.84926
 Alpha virt. eigenvalues --    2.84958   2.85383   2.86295   2.86520   2.87045
 Alpha virt. eigenvalues --    2.87177   2.87186   2.87647   2.88012   2.88467
 Alpha virt. eigenvalues --    2.88788   2.89070   2.89244   2.89663   2.89793
 Alpha virt. eigenvalues --    2.89992   2.90601   2.90635   2.91304   2.91633
 Alpha virt. eigenvalues --    2.91772   2.92061   2.92453   2.93224   2.93338
 Alpha virt. eigenvalues --    2.93905   2.94300   2.94336   2.94624   2.95267
 Alpha virt. eigenvalues --    2.95477   2.95622   2.95764   2.95981   2.96568
 Alpha virt. eigenvalues --    2.97167   2.97253   2.97616   2.97914   2.98145
 Alpha virt. eigenvalues --    2.98328   2.98439   2.98868   2.99373   2.99764
 Alpha virt. eigenvalues --    2.99883   3.00003   3.00934   3.01302   3.01323
 Alpha virt. eigenvalues --    3.01442   3.02113   3.02469   3.02553   3.03057
 Alpha virt. eigenvalues --    3.03272   3.03531   3.03943   3.04103   3.04552
 Alpha virt. eigenvalues --    3.04825   3.05131   3.05512   3.05959   3.06417
 Alpha virt. eigenvalues --    3.06801   3.06859   3.07258   3.07480   3.07750
 Alpha virt. eigenvalues --    3.08339   3.08422   3.08683   3.08762   3.09249
 Alpha virt. eigenvalues --    3.09495   3.09937   3.10193   3.10484   3.10594
 Alpha virt. eigenvalues --    3.10872   3.11115   3.11401   3.11832   3.12421
 Alpha virt. eigenvalues --    3.12438   3.12850   3.13158   3.13351   3.13491
 Alpha virt. eigenvalues --    3.13849   3.14100   3.14477   3.14657   3.15064
 Alpha virt. eigenvalues --    3.15178   3.15432   3.15765   3.16168   3.16471
 Alpha virt. eigenvalues --    3.16817   3.17047   3.17221   3.17389   3.17469
 Alpha virt. eigenvalues --    3.18002   3.18330   3.18488   3.18836   3.19146
 Alpha virt. eigenvalues --    3.19381   3.19528   3.19881   3.20484   3.20820
 Alpha virt. eigenvalues --    3.21130   3.21264   3.21457   3.21664   3.21972
 Alpha virt. eigenvalues --    3.22342   3.22628   3.22866   3.23210   3.23342
 Alpha virt. eigenvalues --    3.23684   3.23902   3.24130   3.24320   3.24783
 Alpha virt. eigenvalues --    3.25386   3.25640   3.25894   3.26121   3.26331
 Alpha virt. eigenvalues --    3.26747   3.27025   3.27202   3.27218   3.27500
 Alpha virt. eigenvalues --    3.27813   3.28271   3.28447   3.28718   3.28735
 Alpha virt. eigenvalues --    3.29245   3.29370   3.29785   3.30151   3.30462
 Alpha virt. eigenvalues --    3.30521   3.31198   3.31281   3.31513   3.31748
 Alpha virt. eigenvalues --    3.32053   3.32460   3.32761   3.33037   3.33268
 Alpha virt. eigenvalues --    3.33294   3.33840   3.33974   3.34607   3.34658
 Alpha virt. eigenvalues --    3.34807   3.35013   3.35407   3.35545   3.35757
 Alpha virt. eigenvalues --    3.35799   3.36107   3.36238   3.36472   3.36683
 Alpha virt. eigenvalues --    3.37012   3.37190   3.37353   3.37916   3.38062
 Alpha virt. eigenvalues --    3.38176   3.38332   3.38668   3.39376   3.39451
 Alpha virt. eigenvalues --    3.39520   3.39969   3.40478   3.40765   3.41160
 Alpha virt. eigenvalues --    3.41546   3.41712   3.42082   3.42324   3.42879
 Alpha virt. eigenvalues --    3.43160   3.43465   3.44079   3.44689   3.44901
 Alpha virt. eigenvalues --    3.45297   3.45433   3.45749   3.45935   3.46144
 Alpha virt. eigenvalues --    3.46501   3.46887   3.47317   3.47712   3.48262
 Alpha virt. eigenvalues --    3.48561   3.48783   3.49236   3.49838   3.50000
 Alpha virt. eigenvalues --    3.50297   3.50685   3.51135   3.51474   3.51709
 Alpha virt. eigenvalues --    3.52052   3.52499   3.52989   3.53322   3.53876
 Alpha virt. eigenvalues --    3.54059   3.54367   3.54660   3.54968   3.55403
 Alpha virt. eigenvalues --    3.55648   3.56259   3.56654   3.56818   3.57031
 Alpha virt. eigenvalues --    3.57709   3.58170   3.58414   3.58782   3.59404
 Alpha virt. eigenvalues --    3.60006   3.60638   3.60805   3.61001   3.61410
 Alpha virt. eigenvalues --    3.61830   3.62233   3.62627   3.63080   3.63370
 Alpha virt. eigenvalues --    3.63995   3.64184   3.64407   3.64927   3.65617
 Alpha virt. eigenvalues --    3.65786   3.66044   3.66143   3.66659   3.66936
 Alpha virt. eigenvalues --    3.67386   3.67725   3.67844   3.68208   3.68878
 Alpha virt. eigenvalues --    3.69040   3.69484   3.69993   3.70358   3.70633
 Alpha virt. eigenvalues --    3.70952   3.71319   3.71655   3.72000   3.72516
 Alpha virt. eigenvalues --    3.72799   3.72861   3.73366   3.74005   3.74358
 Alpha virt. eigenvalues --    3.74921   3.75074   3.75377   3.75724   3.76021
 Alpha virt. eigenvalues --    3.76823   3.77236   3.77653   3.78091   3.78576
 Alpha virt. eigenvalues --    3.78854   3.79419   3.79890   3.80131   3.80557
 Alpha virt. eigenvalues --    3.81322   3.81867   3.81980   3.83104   3.83445
 Alpha virt. eigenvalues --    3.83568   3.83810   3.84540   3.84917   3.85856
 Alpha virt. eigenvalues --    3.86275   3.87055   3.87436   3.87879   3.88468
 Alpha virt. eigenvalues --    3.88941   3.89626   3.90354   3.91028   3.91255
 Alpha virt. eigenvalues --    3.91468   3.92099   3.92528   3.92934   3.93391
 Alpha virt. eigenvalues --    3.94162   3.94342   3.94704   3.95041   3.95596
 Alpha virt. eigenvalues --    3.96144   3.96713   3.96948   3.97390   3.97681
 Alpha virt. eigenvalues --    3.98656   3.98865   3.99221   4.00010   4.00224
 Alpha virt. eigenvalues --    4.00979   4.01578   4.01887   4.02807   4.03241
 Alpha virt. eigenvalues --    4.03400   4.04011   4.04162   4.05096   4.05456
 Alpha virt. eigenvalues --    4.06063   4.06419   4.06805   4.07023   4.07837
 Alpha virt. eigenvalues --    4.08291   4.09051   4.09335   4.09595   4.09952
 Alpha virt. eigenvalues --    4.10936   4.11106   4.11727   4.12165   4.12947
 Alpha virt. eigenvalues --    4.13114   4.13719   4.14346   4.14560   4.14887
 Alpha virt. eigenvalues --    4.15471   4.15881   4.16633   4.17013   4.17542
 Alpha virt. eigenvalues --    4.18356   4.18894   4.19474   4.20192   4.20589
 Alpha virt. eigenvalues --    4.20893   4.21335   4.22330   4.22461   4.23009
 Alpha virt. eigenvalues --    4.23294   4.23554   4.24611   4.24870   4.25489
 Alpha virt. eigenvalues --    4.25781   4.26446   4.26948   4.27195   4.28085
 Alpha virt. eigenvalues --    4.28742   4.29422   4.30063   4.30594   4.30907
 Alpha virt. eigenvalues --    4.31116   4.32364   4.32857   4.33848   4.34044
 Alpha virt. eigenvalues --    4.34316   4.35031   4.35472   4.35906   4.36837
 Alpha virt. eigenvalues --    4.37125   4.38043   4.38514   4.38810   4.39687
 Alpha virt. eigenvalues --    4.40389   4.40984   4.41452   4.41583   4.42008
 Alpha virt. eigenvalues --    4.42335   4.42797   4.43316   4.43574   4.44434
 Alpha virt. eigenvalues --    4.44802   4.45086   4.46451   4.47722   4.48403
 Alpha virt. eigenvalues --    4.48627   4.49240   4.50449   4.50920   4.51116
 Alpha virt. eigenvalues --    4.52966   4.53645   4.54068   4.54373   4.55496
 Alpha virt. eigenvalues --    4.55627   4.56461   4.56950   4.58063   4.58507
 Alpha virt. eigenvalues --    4.59152   4.60681   4.61238   4.62511   4.63634
 Alpha virt. eigenvalues --    4.63797   4.64156   4.64654   4.65238   4.66016
 Alpha virt. eigenvalues --    4.66142   4.66892   4.68087   4.68175   4.68962
 Alpha virt. eigenvalues --    4.70314   4.70521   4.70877   4.71288   4.71838
 Alpha virt. eigenvalues --    4.73386   4.74845   4.75015   4.75407   4.76283
 Alpha virt. eigenvalues --    4.76683   4.77085   4.78245   4.78972   4.79480
 Alpha virt. eigenvalues --    4.80086   4.80787   4.81677   4.82651   4.83516
 Alpha virt. eigenvalues --    4.84016   4.84657   4.85668   4.85887   4.87133
 Alpha virt. eigenvalues --    4.87696   4.88441   4.89270   4.89882   4.90625
 Alpha virt. eigenvalues --    4.91200   4.92147   4.92285   4.93561   4.94304
 Alpha virt. eigenvalues --    4.95020   4.95659   4.96796   4.97304   4.97489
 Alpha virt. eigenvalues --    4.98718   4.99154   5.00101   5.01116   5.01914
 Alpha virt. eigenvalues --    5.03074   5.04124   5.05687   5.05917   5.06500
 Alpha virt. eigenvalues --    5.07245   5.07948   5.08617   5.08939   5.09288
 Alpha virt. eigenvalues --    5.10879   5.11564   5.12212   5.13247   5.14229
 Alpha virt. eigenvalues --    5.14888   5.15427   5.16187   5.17062   5.17809
 Alpha virt. eigenvalues --    5.18329   5.18356   5.18597   5.18948   5.19339
 Alpha virt. eigenvalues --    5.21317   5.21876   5.22355   5.22783   5.23546
 Alpha virt. eigenvalues --    5.24912   5.25878   5.27091   5.27596   5.28146
 Alpha virt. eigenvalues --    5.28369   5.29247   5.29711   5.31398   5.31707
 Alpha virt. eigenvalues --    5.35228   5.36890   5.37129   5.37665   5.38401
 Alpha virt. eigenvalues --    5.38615   5.39419   5.40216   5.40913   5.41157
 Alpha virt. eigenvalues --    5.42593   5.43475   5.44326   5.45101   5.46363
 Alpha virt. eigenvalues --    5.47055   5.47924   5.48173   5.49734   5.51488
 Alpha virt. eigenvalues --    5.51658   5.53361   5.54870   5.55925   5.57584
 Alpha virt. eigenvalues --    5.58930   5.59129   5.60202   5.60315   5.61041
 Alpha virt. eigenvalues --    5.62643   5.63691   5.64639   5.64905   5.65520
 Alpha virt. eigenvalues --    5.67669   5.68103   5.69120   5.70617   5.70916
 Alpha virt. eigenvalues --    5.72997   5.73450   5.75666   5.76506   5.78568
 Alpha virt. eigenvalues --    5.80106   5.81707   5.83334   5.85301   5.86900
 Alpha virt. eigenvalues --    5.87306   5.90058   5.93931   5.95563   5.97035
 Alpha virt. eigenvalues --    5.98399   6.00240   6.01571   6.03964   6.07363
 Alpha virt. eigenvalues --    6.08267   6.10070   6.11341   6.11994   6.12476
 Alpha virt. eigenvalues --    6.13642   6.16042   6.22147   6.22418   6.23162
 Alpha virt. eigenvalues --    6.25514   6.26812   6.32004   6.32894   6.38236
 Alpha virt. eigenvalues --    6.38567   6.39167   6.40403   6.41295   6.43831
 Alpha virt. eigenvalues --    6.47915   6.48078   6.48313   6.49262   6.52451
 Alpha virt. eigenvalues --    6.52940   6.54253   6.54574   6.64626   6.67549
 Alpha virt. eigenvalues --    6.77692   6.81956   6.82528   6.84502   6.85825
 Alpha virt. eigenvalues --    6.97678   6.98858   6.99726   7.02288   7.09049
 Alpha virt. eigenvalues --    7.11476   7.12002   7.16410   7.17810   7.24230
 Alpha virt. eigenvalues --    7.26917   7.33453  22.33117  22.36483  22.46140
 Alpha virt. eigenvalues --   22.51536  22.52444  22.53872  22.54158  22.60581
 Alpha virt. eigenvalues --   22.62786  22.71641  22.73434  22.75757  22.82701
 Alpha virt. eigenvalues --   22.87565  22.92383  22.93374  22.95451  22.98237
 Alpha virt. eigenvalues --   23.02859  23.05307  23.09645  23.14793  23.20245
 Alpha virt. eigenvalues --   23.33290  23.35802  23.36514  23.42353  23.46561
 Alpha virt. eigenvalues --   23.48472  23.53077  23.55978  23.59514  23.72070
 Alpha virt. eigenvalues --   23.76308  23.79554  23.90986  23.94032  24.03536
 Alpha virt. eigenvalues --   32.50034  32.77452  32.92443  33.00996  33.07209
 Alpha virt. eigenvalues --   33.14491  43.92733  43.96091  43.99207  44.00548
 Alpha virt. eigenvalues --   44.17268
  Beta  occ. eigenvalues -- -256.44648 -30.21087 -26.04181 -26.03864 -26.03236
  Beta  occ. eigenvalues --  -19.29237 -19.26296 -19.25703 -19.18776 -19.18551
  Beta  occ. eigenvalues --  -14.46838 -14.43488 -14.41281 -14.41208 -14.40650
  Beta  occ. eigenvalues --  -14.40406 -10.35905 -10.35558 -10.30381 -10.28263
  Beta  occ. eigenvalues --  -10.28024 -10.27678 -10.27673 -10.27629 -10.27502
  Beta  occ. eigenvalues --  -10.27200 -10.27106 -10.27051 -10.25830 -10.25776
  Beta  occ. eigenvalues --  -10.25705 -10.25630 -10.25594 -10.25466 -10.25141
  Beta  occ. eigenvalues --  -10.25125 -10.24929 -10.24842 -10.24805 -10.24777
  Beta  occ. eigenvalues --  -10.24664 -10.24505 -10.24489 -10.24418 -10.24210
  Beta  occ. eigenvalues --  -10.24182 -10.23912 -10.23784 -10.23673 -10.23492
  Beta  occ. eigenvalues --  -10.22912 -10.22802 -10.22781 -10.22440  -3.53460
  Beta  occ. eigenvalues --   -2.29018  -2.28469  -2.28138  -1.19285  -1.18943
  Beta  occ. eigenvalues --   -1.12800  -1.11741  -1.05011  -1.04322  -1.04117
  Beta  occ. eigenvalues --   -1.03335  -1.02869  -1.02253  -0.96232  -0.87419
  Beta  occ. eigenvalues --   -0.86071  -0.85908  -0.85498  -0.85136  -0.84604
  Beta  occ. eigenvalues --   -0.84272  -0.83044  -0.81593  -0.80903  -0.79678
  Beta  occ. eigenvalues --   -0.78466  -0.78181  -0.76493  -0.74675  -0.74559
  Beta  occ. eigenvalues --   -0.74240  -0.73835  -0.72560  -0.71409  -0.71046
  Beta  occ. eigenvalues --   -0.69541  -0.69447  -0.68692  -0.67353  -0.67052
  Beta  occ. eigenvalues --   -0.65637  -0.65561  -0.64724  -0.63878  -0.62152
  Beta  occ. eigenvalues --   -0.61944  -0.59743  -0.59505  -0.58401  -0.57678
  Beta  occ. eigenvalues --   -0.56913  -0.55763  -0.55575  -0.55277  -0.54871
  Beta  occ. eigenvalues --   -0.54095  -0.53582  -0.52804  -0.52402  -0.52131
  Beta  occ. eigenvalues --   -0.52007  -0.51779  -0.51148  -0.50695  -0.50557
  Beta  occ. eigenvalues --   -0.49278  -0.48778  -0.48613  -0.48468  -0.47896
  Beta  occ. eigenvalues --   -0.47807  -0.47478  -0.47216  -0.47001  -0.46628
  Beta  occ. eigenvalues --   -0.46486  -0.46206  -0.45666  -0.45489  -0.44688
  Beta  occ. eigenvalues --   -0.44635  -0.44426  -0.44247  -0.44095  -0.44036
  Beta  occ. eigenvalues --   -0.43682  -0.43616  -0.43452  -0.43130  -0.42972
  Beta  occ. eigenvalues --   -0.42828  -0.42440  -0.42091  -0.42006  -0.41457
  Beta  occ. eigenvalues --   -0.41222  -0.41024  -0.40790  -0.40117  -0.40050
  Beta  occ. eigenvalues --   -0.39911  -0.39687  -0.39564  -0.39104  -0.38810
  Beta  occ. eigenvalues --   -0.38709  -0.37972  -0.37687  -0.37267  -0.36353
  Beta  occ. eigenvalues --   -0.36182  -0.35941  -0.35747  -0.34835  -0.34231
  Beta  occ. eigenvalues --   -0.34076  -0.33944  -0.33067  -0.32783  -0.32147
  Beta  occ. eigenvalues --   -0.31031  -0.30751  -0.29822  -0.29137  -0.29076
  Beta  occ. eigenvalues --   -0.27021  -0.26408  -0.25979  -0.24761  -0.23176
  Beta  occ. eigenvalues --   -0.22465  -0.21241
  Beta virt. eigenvalues --   -0.12033  -0.11504  -0.09676  -0.07402  -0.06834
  Beta virt. eigenvalues --   -0.05424  -0.05124  -0.02359  -0.01067  -0.00866
  Beta virt. eigenvalues --   -0.00095   0.00030   0.02687   0.02878   0.03167
  Beta virt. eigenvalues --    0.03252   0.03323   0.04146   0.04372   0.04570
  Beta virt. eigenvalues --    0.05172   0.05461   0.05685   0.06010   0.06478
  Beta virt. eigenvalues --    0.06724   0.06839   0.07171   0.07543   0.07554
  Beta virt. eigenvalues --    0.08031   0.08227   0.08353   0.08998   0.09094
  Beta virt. eigenvalues --    0.09586   0.09831   0.10054   0.10309   0.10673
  Beta virt. eigenvalues --    0.10984   0.11190   0.11471   0.11609   0.11745
  Beta virt. eigenvalues --    0.11953   0.12058   0.12444   0.12571   0.12666
  Beta virt. eigenvalues --    0.13017   0.13084   0.13315   0.13663   0.13686
  Beta virt. eigenvalues --    0.13719   0.13894   0.14306   0.14461   0.14673
  Beta virt. eigenvalues --    0.14812   0.15270   0.15462   0.15903   0.15929
  Beta virt. eigenvalues --    0.16088   0.16411   0.16832   0.17012   0.17269
  Beta virt. eigenvalues --    0.17347   0.17705   0.17715   0.17988   0.18267
  Beta virt. eigenvalues --    0.18458   0.18592   0.18818   0.19084   0.19392
  Beta virt. eigenvalues --    0.19590   0.19702   0.20108   0.20330   0.20586
  Beta virt. eigenvalues --    0.20662   0.20929   0.21057   0.21462   0.21564
  Beta virt. eigenvalues --    0.21735   0.21963   0.22091   0.22267   0.22588
  Beta virt. eigenvalues --    0.22702   0.23154   0.23251   0.23392   0.23707
  Beta virt. eigenvalues --    0.23939   0.24142   0.24549   0.24707   0.25010
  Beta virt. eigenvalues --    0.25201   0.25304   0.25409   0.25622   0.25766
  Beta virt. eigenvalues --    0.25838   0.26155   0.26340   0.26772   0.26872
  Beta virt. eigenvalues --    0.27061   0.27223   0.27550   0.27832   0.28116
  Beta virt. eigenvalues --    0.28266   0.28433   0.28744   0.28887   0.29023
  Beta virt. eigenvalues --    0.29262   0.29591   0.29737   0.30034   0.30599
  Beta virt. eigenvalues --    0.30917   0.31287   0.31442   0.31634   0.31898
  Beta virt. eigenvalues --    0.32105   0.32188   0.32424   0.32916   0.33052
  Beta virt. eigenvalues --    0.33339   0.33557   0.33718   0.34002   0.34165
  Beta virt. eigenvalues --    0.34370   0.34470   0.34978   0.35134   0.35466
  Beta virt. eigenvalues --    0.36057   0.36335   0.36436   0.36512   0.36792
  Beta virt. eigenvalues --    0.36908   0.37159   0.37462   0.37666   0.37780
  Beta virt. eigenvalues --    0.38042   0.38295   0.38527   0.38662   0.38938
  Beta virt. eigenvalues --    0.39166   0.39371   0.39451   0.39798   0.39855
  Beta virt. eigenvalues --    0.40073   0.40321   0.40516   0.40715   0.40843
  Beta virt. eigenvalues --    0.41214   0.41464   0.41567   0.41743   0.42162
  Beta virt. eigenvalues --    0.42294   0.42440   0.42570   0.42754   0.42968
  Beta virt. eigenvalues --    0.43290   0.43458   0.43501   0.43656   0.43803
  Beta virt. eigenvalues --    0.43852   0.44088   0.44622   0.44747   0.44959
  Beta virt. eigenvalues --    0.45219   0.45292   0.45503   0.45669   0.45824
  Beta virt. eigenvalues --    0.46004   0.46333   0.46544   0.46721   0.47029
  Beta virt. eigenvalues --    0.47142   0.47267   0.47410   0.47666   0.47700
  Beta virt. eigenvalues --    0.47788   0.48068   0.48274   0.48316   0.48672
  Beta virt. eigenvalues --    0.49121   0.49317   0.49563   0.49610   0.49804
  Beta virt. eigenvalues --    0.49866   0.50066   0.50215   0.50499   0.50591
  Beta virt. eigenvalues --    0.50635   0.50922   0.51132   0.51359   0.51558
  Beta virt. eigenvalues --    0.51674   0.51969   0.52257   0.52319   0.52429
  Beta virt. eigenvalues --    0.52463   0.52713   0.52908   0.53189   0.53379
  Beta virt. eigenvalues --    0.53592   0.53773   0.53973   0.54350   0.54474
  Beta virt. eigenvalues --    0.54726   0.54968   0.55220   0.55383   0.55839
  Beta virt. eigenvalues --    0.55913   0.56226   0.56477   0.56573   0.57001
  Beta virt. eigenvalues --    0.57217   0.57252   0.57423   0.57612   0.57813
  Beta virt. eigenvalues --    0.57995   0.58414   0.58714   0.58901   0.59051
  Beta virt. eigenvalues --    0.59630   0.59807   0.59907   0.60208   0.60365
  Beta virt. eigenvalues --    0.60846   0.61227   0.61337   0.61450   0.61652
  Beta virt. eigenvalues --    0.61882   0.62579   0.62668   0.62834   0.63096
  Beta virt. eigenvalues --    0.63369   0.63749   0.63832   0.63996   0.64271
  Beta virt. eigenvalues --    0.64592   0.64754   0.65047   0.65435   0.65557
  Beta virt. eigenvalues --    0.65867   0.66240   0.66538   0.66608   0.67030
  Beta virt. eigenvalues --    0.67170   0.67545   0.67683   0.67982   0.68394
  Beta virt. eigenvalues --    0.68471   0.68883   0.69086   0.69442   0.69575
  Beta virt. eigenvalues --    0.69804   0.70314   0.70545   0.70662   0.71100
  Beta virt. eigenvalues --    0.71292   0.71475   0.71910   0.72155   0.72809
  Beta virt. eigenvalues --    0.73164   0.73491   0.73615   0.73737   0.73970
  Beta virt. eigenvalues --    0.74553   0.74870   0.74986   0.75400   0.75410
  Beta virt. eigenvalues --    0.75435   0.75737   0.76191   0.76615   0.76806
  Beta virt. eigenvalues --    0.77030   0.77443   0.77653   0.77850   0.78193
  Beta virt. eigenvalues --    0.78507   0.78971   0.79085   0.79374   0.79662
  Beta virt. eigenvalues --    0.80194   0.80541   0.80724   0.81089   0.81313
  Beta virt. eigenvalues --    0.81404   0.81480   0.82043   0.82497   0.82673
  Beta virt. eigenvalues --    0.83357   0.83398   0.83914   0.84023   0.84595
  Beta virt. eigenvalues --    0.84947   0.85449   0.85692   0.85900   0.86314
  Beta virt. eigenvalues --    0.86420   0.86711   0.87106   0.87579   0.87840
  Beta virt. eigenvalues --    0.88152   0.88605   0.88925   0.88997   0.89654
  Beta virt. eigenvalues --    0.90053   0.90440   0.90533   0.90934   0.91415
  Beta virt. eigenvalues --    0.91671   0.91864   0.92058   0.92286   0.93001
  Beta virt. eigenvalues --    0.93276   0.93673   0.93855   0.93920   0.94439
  Beta virt. eigenvalues --    0.94762   0.95051   0.95329   0.95733   0.96082
  Beta virt. eigenvalues --    0.96315   0.96463   0.96821   0.97295   0.97733
  Beta virt. eigenvalues --    0.97756   0.98332   0.98400   0.98703   0.99085
  Beta virt. eigenvalues --    0.99227   0.99468   0.99686   1.00054   1.00241
  Beta virt. eigenvalues --    1.00533   1.01066   1.01170   1.01449   1.01842
  Beta virt. eigenvalues --    1.01953   1.02486   1.02899   1.03170   1.03262
  Beta virt. eigenvalues --    1.03619   1.03838   1.04076   1.04487   1.04911
  Beta virt. eigenvalues --    1.05342   1.05385   1.06026   1.06128   1.06526
  Beta virt. eigenvalues --    1.06811   1.07024   1.07359   1.07514   1.07932
  Beta virt. eigenvalues --    1.08500   1.08825   1.09228   1.09393   1.09632
  Beta virt. eigenvalues --    1.09987   1.10239   1.10598   1.11091   1.11295
  Beta virt. eigenvalues --    1.11815   1.12393   1.12590   1.12782   1.13065
  Beta virt. eigenvalues --    1.13520   1.13706   1.13900   1.14182   1.14762
  Beta virt. eigenvalues --    1.15110   1.15664   1.16052   1.16530   1.16693
  Beta virt. eigenvalues --    1.17019   1.17738   1.18132   1.18354   1.18501
  Beta virt. eigenvalues --    1.19478   1.19889   1.20095   1.20808   1.21149
  Beta virt. eigenvalues --    1.21473   1.21541   1.22202   1.22441   1.22645
  Beta virt. eigenvalues --    1.23141   1.23534   1.24017   1.24136   1.24421
  Beta virt. eigenvalues --    1.24676   1.25285   1.25679   1.25907   1.26211
  Beta virt. eigenvalues --    1.26861   1.26997   1.27540   1.28009   1.28614
  Beta virt. eigenvalues --    1.28682   1.29249   1.29636   1.29914   1.30086
  Beta virt. eigenvalues --    1.31179   1.31420   1.32168   1.32334   1.32635
  Beta virt. eigenvalues --    1.33074   1.33338   1.33589   1.33726   1.34414
  Beta virt. eigenvalues --    1.34872   1.35152   1.35490   1.35618   1.36520
  Beta virt. eigenvalues --    1.36668   1.37153   1.37517   1.37615   1.38593
  Beta virt. eigenvalues --    1.38792   1.39880   1.40057   1.40309   1.40566
  Beta virt. eigenvalues --    1.40836   1.41549   1.41758   1.42104   1.42373
  Beta virt. eigenvalues --    1.42772   1.43226   1.43637   1.43957   1.44084
  Beta virt. eigenvalues --    1.44444   1.44829   1.44909   1.45378   1.45561
  Beta virt. eigenvalues --    1.45840   1.46076   1.46615   1.46910   1.47149
  Beta virt. eigenvalues --    1.47394   1.47711   1.48013   1.48372   1.48714
  Beta virt. eigenvalues --    1.49020   1.49619   1.49675   1.49984   1.50278
  Beta virt. eigenvalues --    1.50564   1.50999   1.51363   1.51643   1.51796
  Beta virt. eigenvalues --    1.51957   1.52415   1.52724   1.53264   1.53364
  Beta virt. eigenvalues --    1.53589   1.53767   1.54058   1.54442   1.54790
  Beta virt. eigenvalues --    1.55007   1.55055   1.55559   1.55823   1.55958
  Beta virt. eigenvalues --    1.56241   1.57011   1.57040   1.57693   1.57795
  Beta virt. eigenvalues --    1.58089   1.58315   1.58638   1.58886   1.59146
  Beta virt. eigenvalues --    1.59472   1.59566   1.59898   1.60236   1.60402
  Beta virt. eigenvalues --    1.60650   1.60857   1.61038   1.61266   1.61638
  Beta virt. eigenvalues --    1.61851   1.62220   1.62266   1.62522   1.62900
  Beta virt. eigenvalues --    1.62968   1.63598   1.63771   1.63938   1.64142
  Beta virt. eigenvalues --    1.64354   1.65136   1.65255   1.65529   1.65640
  Beta virt. eigenvalues --    1.66202   1.66899   1.67129   1.67492   1.67764
  Beta virt. eigenvalues --    1.67953   1.68163   1.68399   1.68725   1.69095
  Beta virt. eigenvalues --    1.69740   1.69915   1.70094   1.70720   1.70852
  Beta virt. eigenvalues --    1.71158   1.71568   1.72028   1.72249   1.72669
  Beta virt. eigenvalues --    1.72825   1.72972   1.73391   1.73669   1.73941
  Beta virt. eigenvalues --    1.74407   1.75140   1.75660   1.75843   1.76744
[...]
    28 C(13)  Bbb    -0.2603   -34.925   -12.462   -11.650  0.4829  0.3380  0.8078
              Bcc     0.5287    70.952    25.318    23.667 -0.5821 -0.5653  0.5845
 
              Baa    -0.0098    -1.319    -0.471    -0.440 -0.1141 -0.1378  0.9839
    29 C(13)  Bbb    -0.0026    -0.349    -0.125    -0.117 -0.4142  0.9068  0.0790
              Bcc     0.0124     1.668     0.595     0.556  0.9030  0.3985  0.1606
 
              Baa    -0.0090    -1.206    -0.430    -0.402 -0.0845 -0.3133  0.9459
    30 C(13)  Bbb     0.0027     0.360     0.128     0.120 -0.4740  0.8476  0.2384
              Bcc     0.0063     0.846     0.302     0.282  0.8764  0.4282  0.2201
 
              Baa    -0.0030    -0.406    -0.145    -0.135  0.9178 -0.3179  0.2377
    31 C(13)  Bbb     0.0001     0.007     0.003     0.002  0.1127  0.7828  0.6120
              Bcc     0.0030     0.399     0.142     0.133 -0.3806 -0.5350  0.7543
 
              Baa    -0.0221    -2.970    -1.060    -0.991 -0.2183 -0.1852  0.9581
    32 C(13)  Bbb     0.0062     0.831     0.297     0.277  0.8511 -0.5166  0.0941
              Bcc     0.0159     2.138     0.763     0.713  0.4775  0.8360  0.2704
 
              Baa    -0.0009    -0.117    -0.042    -0.039 -0.1437  0.1251  0.9817
    33 C(13)  Bbb    -0.0005    -0.066    -0.024    -0.022 -0.3803  0.9088 -0.1715
              Bcc     0.0014     0.183     0.065     0.061  0.9136  0.3980  0.0830
 
              Baa    -0.0018    -0.236    -0.084    -0.079  0.7785 -0.4184 -0.4679
    34 C(13)  Bbb     0.0002     0.028     0.010     0.009  0.5138  0.8529  0.0923
              Bcc     0.0015     0.208     0.074     0.069  0.3604 -0.3123  0.8790
 
              Baa    -0.0045    -0.604    -0.216    -0.201 -0.6057  0.6559 -0.4505
    35 C(13)  Bbb     0.0017     0.231     0.083     0.077 -0.5571  0.0547  0.8287
              Bcc     0.0028     0.373     0.133     0.124  0.5682  0.7529  0.3322
 
              Baa    -0.0190    -2.554    -0.911    -0.852 -0.2383 -0.1152  0.9643
    36 C(13)  Bbb     0.0047     0.626     0.223     0.209  0.7716  0.5806  0.2600
              Bcc     0.0144     1.928     0.688     0.643 -0.5898  0.8060 -0.0495
 
              Baa    -0.0050    -0.668    -0.238    -0.223  0.8674  0.1656  0.4692
    37 C(13)  Bbb    -0.0014    -0.192    -0.068    -0.064 -0.0521  0.9680 -0.2454
              Bcc     0.0064     0.860     0.307     0.287 -0.4949  0.1884  0.8483
 
              Baa    -0.0050    -0.671    -0.239    -0.224 -0.1433 -0.1652  0.9758
    38 C(13)  Bbb     0.0006     0.079     0.028     0.026  0.5001  0.8387  0.2155
              Bcc     0.0044     0.592     0.211     0.197  0.8540 -0.5189  0.0376
 
              Baa    -0.0086    -1.148    -0.410    -0.383 -0.2134 -0.1059  0.9712
    39 C(13)  Bbb    -0.0032    -0.426    -0.152    -0.142  0.3660  0.9130  0.1800
              Bcc     0.0117     1.573     0.561     0.525  0.9058 -0.3939  0.1561
 
              Baa    -0.0006    -0.084    -0.030    -0.028  0.7091  0.5475 -0.4443
    40 C(13)  Bbb    -0.0003    -0.038    -0.014    -0.013  0.4231  0.1737  0.8893
              Bcc     0.0009     0.122     0.044     0.041 -0.5640  0.8186  0.1085
 
              Baa    -0.0008    -0.101    -0.036    -0.034 -0.1772 -0.1303  0.9755
    41 C(13)  Bbb    -0.0006    -0.078    -0.028    -0.026  0.4139  0.8894  0.1940
              Bcc     0.0013     0.179     0.064     0.060  0.8929 -0.4382  0.1037
 
              Baa    -0.0005    -0.072    -0.026    -0.024  0.0392  0.1367  0.9898
    42 C(13)  Bbb    -0.0004    -0.056    -0.020    -0.019  0.4412  0.8864 -0.1399
              Bcc     0.0010     0.128     0.046     0.043  0.8965 -0.4422  0.0255
 
              Baa    -0.0003    -0.039    -0.014    -0.013  0.2504  0.6895  0.6796
    43 C(13)  Bbb    -0.0003    -0.038    -0.014    -0.013 -0.2619 -0.6276  0.7332
              Bcc     0.0006     0.077     0.028     0.026  0.9320 -0.3616  0.0234
 
              Baa    -0.0003     0.019     0.007     0.006  0.2839  0.9578 -0.0457
    44 O(17)  Bbb    -0.0002     0.016     0.006     0.005  0.0529  0.0319  0.9981
              Bcc     0.0005    -0.035    -0.013    -0.012  0.9574 -0.2858 -0.0416
 
              Baa    -0.0003     0.019     0.007     0.006  0.4677  0.8500 -0.2424
    45 O(17)  Bbb    -0.0002     0.014     0.005     0.005 -0.0167  0.2827  0.9591
              Bcc     0.0005    -0.033    -0.012    -0.011  0.8837 -0.4445  0.1464
 
              Baa    -0.0201    -0.773    -0.276    -0.258  0.0971  0.1724  0.9802
    46 N(14)  Bbb    -0.0051    -0.197    -0.070    -0.066  0.7156  0.6724 -0.1891
              Bcc     0.0252     0.970     0.346     0.324 -0.6917  0.7198 -0.0581
 
              Baa    -0.0700    -2.698    -0.963    -0.900 -0.0747  0.0649  0.9951
    47 N(14)  Bbb     0.0204     0.789     0.281     0.263 -0.6070  0.7888 -0.0970
              Bcc     0.0495     1.909     0.681     0.637  0.7912  0.6112  0.0196
 
              Baa    -0.0273    -1.052    -0.375    -0.351  0.6702  0.7186  0.1854
    48 N(14)  Bbb    -0.0048    -0.185    -0.066    -0.062  0.7386 -0.6702 -0.0723
              Bcc     0.0321     1.236     0.441     0.412 -0.0723 -0.1854  0.9800
 
              Baa    -0.0321    -1.239    -0.442    -0.413 -0.6628  0.7480  0.0341
    49 N(14)  Bbb     0.0023     0.089     0.032     0.030  0.7450  0.6543  0.1301
              Bcc     0.0298     1.151     0.411     0.384 -0.0750 -0.1117  0.9909
 
              Baa    -1.5177   -26.276    -9.376    -8.765  0.2576  0.9566  0.1360
    50 Fe(57) Bbb     0.5104     8.836     3.153     2.947  0.9389 -0.2811  0.1989
              Bcc     1.0074    17.440     6.223     5.817 -0.2285 -0.0765  0.9705
 
              Baa    -0.0582     4.214     1.504     1.406  0.3544  0.8896  0.2882
    51 O(17)  Bbb    -0.0435     3.149     1.124     1.050 -0.2141 -0.2228  0.9510
              Bcc     0.1018    -7.363    -2.627    -2.456  0.9103 -0.3987  0.1115
 
              Baa    -0.0007    -0.375    -0.134    -0.125  0.9088 -0.3668 -0.1986
    52 H(1)   Bbb    -0.0007    -0.354    -0.126    -0.118  0.4171  0.7954  0.4397
              Bcc     0.0014     0.728     0.260     0.243 -0.0033 -0.4825  0.8759
 
              Baa    -0.0006    -0.340    -0.121    -0.113  0.5108  0.8251  0.2413
    53 H(1)   Bbb    -0.0005    -0.280    -0.100    -0.094  0.8586 -0.5038 -0.0951
              Bcc     0.0012     0.620     0.221     0.207 -0.0431 -0.2557  0.9658
 
              Baa    -0.0007    -0.352    -0.126    -0.117  0.8240  0.3773  0.4226
    54 H(1)   Bbb    -0.0006    -0.305    -0.109    -0.102 -0.4984  0.8374  0.2241
              Bcc     0.0012     0.657     0.235     0.219 -0.2693 -0.3953  0.8782
 
              Baa    -0.0038    -2.030    -0.724    -0.677 -0.5644  0.6025  0.5643
    55 H(1)   Bbb    -0.0037    -1.962    -0.700    -0.654  0.8255  0.4080  0.3899
              Bcc     0.0075     3.992     1.424     1.332 -0.0046 -0.6859  0.7277
 
              Baa    -0.0052    -2.757    -0.984    -0.920  0.5347 -0.5479  0.6434
    56 H(1)   Bbb    -0.0043    -2.318    -0.827    -0.773  0.8198  0.5211 -0.2375
              Bcc     0.0095     5.075     1.811     1.693 -0.2051  0.6545  0.7277
 
              Baa    -0.0006    -0.325    -0.116    -0.108  0.9531 -0.2694 -0.1381
    57 H(1)   Bbb    -0.0005    -0.249    -0.089    -0.083  0.1503  0.0252  0.9883
              Bcc     0.0011     0.574     0.205     0.191  0.2628  0.9627 -0.0646
 
              Baa    -0.0007    -0.347    -0.124    -0.116  0.9593 -0.1800  0.2175
    58 H(1)   Bbb    -0.0004    -0.199    -0.071    -0.066 -0.2284 -0.0419  0.9727
              Bcc     0.0010     0.546     0.195     0.182  0.1660  0.9828  0.0813
 
              Baa    -0.0005    -0.262    -0.093    -0.087  0.8586 -0.4246  0.2872
    59 H(1)   Bbb    -0.0004    -0.212    -0.076    -0.071 -0.2891  0.0616  0.9553
              Bcc     0.0009     0.474     0.169     0.158  0.4234  0.9033  0.0698
 
              Baa    -0.0007    -0.370    -0.132    -0.123 -0.5498  0.8351 -0.0185
    60 H(1)   Bbb    -0.0006    -0.338    -0.121    -0.113 -0.1810 -0.0975  0.9786
              Bcc     0.0013     0.707     0.252     0.236  0.8154  0.5414  0.2047
 
              Baa    -0.0008    -0.443    -0.158    -0.148 -0.1436 -0.1200  0.9823
    61 H(1)   Bbb    -0.0007    -0.372    -0.133    -0.124 -0.2243  0.9707  0.0858
              Bcc     0.0015     0.815     0.291     0.272  0.9639  0.2080  0.1663
 
              Baa    -0.0008    -0.413    -0.147    -0.138 -0.4009  0.7796 -0.4811
    62 H(1)   Bbb    -0.0005    -0.279    -0.099    -0.093  0.0602  0.5464  0.8354
              Bcc     0.0013     0.691     0.247     0.231  0.9141  0.3060 -0.2660
 
              Baa    -0.0006    -0.317    -0.113    -0.106 -0.4662  0.7486  0.4715
    63 H(1)   Bbb    -0.0004    -0.231    -0.082    -0.077  0.4775 -0.2357  0.8464
              Bcc     0.0010     0.548     0.195     0.183  0.7447  0.6197 -0.2476
 
              Baa    -0.0002    -0.089    -0.032    -0.030 -0.4508  0.8904 -0.0635
    64 H(1)   Bbb    -0.0002    -0.086    -0.031    -0.029  0.0158  0.0791  0.9967
              Bcc     0.0003     0.175     0.062     0.058  0.8925  0.4483 -0.0498
 
              Baa    -0.0016    -0.866    -0.309    -0.289 -0.0922 -0.1909  0.9773
    65 H(1)   Bbb    -0.0013    -0.688    -0.246    -0.230 -0.1497  0.9729  0.1760
              Bcc     0.0029     1.554     0.555     0.518  0.9844  0.1301  0.1183
 
              Baa    -0.0106    -5.645    -2.014    -1.883  0.7269  0.6635 -0.1772
    66 H(1)   Bbb    -0.0087    -4.630    -1.652    -1.545 -0.6853  0.7173 -0.1259
              Bcc     0.0193    10.275     3.666     3.427  0.0436  0.2129  0.9761
 
              Baa    -0.0107    -5.710    -2.037    -1.905  0.3044  0.7417  0.5976
    67 H(1)   Bbb    -0.0086    -4.592    -1.639    -1.532  0.9160 -0.4001  0.0300
              Bcc     0.0193    10.302     3.676     3.436 -0.2614 -0.5383  0.8012
 
              Baa    -0.0006    -0.299    -0.107    -0.100  0.5966  0.7609 -0.2549
    68 H(1)   Bbb    -0.0005    -0.278    -0.099    -0.093 -0.0473  0.3505  0.9354
              Bcc     0.0011     0.577     0.206     0.192  0.8011 -0.5460  0.2451
 
              Baa    -0.0007    -0.381    -0.136    -0.127  0.3157  0.9393  0.1342
    69 H(1)   Bbb    -0.0007    -0.369    -0.132    -0.123 -0.2971 -0.0365  0.9541
              Bcc     0.0014     0.750     0.267     0.250  0.9011 -0.3411  0.2676
 
              Baa    -0.0005    -0.241    -0.086    -0.080  0.2409  0.2034  0.9490
    70 H(1)   Bbb    -0.0004    -0.233    -0.083    -0.078  0.4800  0.8249 -0.2986
              Bcc     0.0009     0.474     0.169     0.158  0.8435 -0.5275 -0.1011
 
              Baa    -0.0006    -0.329    -0.118    -0.110  0.1620  0.7018 -0.6937
    71 H(1)   Bbb    -0.0006    -0.323    -0.115    -0.108  0.3119  0.6305  0.7107
              Bcc     0.0012     0.653     0.233     0.218  0.9362 -0.3315 -0.1168
 
              Baa    -0.0002    -0.103    -0.037    -0.034  0.1487  0.7626 -0.6296
    72 H(1)   Bbb    -0.0002    -0.102    -0.036    -0.034  0.3080  0.5693  0.7623
              Bcc     0.0004     0.204     0.073     0.068  0.9397 -0.3073 -0.1503
 
              Baa    -0.0006    -0.319    -0.114    -0.106  0.0299 -0.0504  0.9983
    73 H(1)   Bbb    -0.0005    -0.269    -0.096    -0.090  0.8393  0.5437  0.0023
              Bcc     0.0011     0.587     0.209     0.196 -0.5428  0.8378  0.0585
 
              Baa    -0.0006    -0.339    -0.121    -0.113  0.2156  0.3613  0.9072
    74 H(1)   Bbb    -0.0006    -0.294    -0.105    -0.098  0.8362  0.4114 -0.3626
              Bcc     0.0012     0.633     0.226     0.211 -0.5042  0.8368 -0.2135
 
              Baa    -0.0008    -0.405    -0.144    -0.135  0.9264  0.3761 -0.0154
    75 H(1)   Bbb    -0.0007    -0.381    -0.136    -0.127 -0.0062  0.0562  0.9984
              Bcc     0.0015     0.786     0.280     0.262 -0.3764  0.9249 -0.0544
 
              Baa    -0.0039    -2.086    -0.744    -0.696  0.9801 -0.0101  0.1982
    76 H(1)   Bbb    -0.0010    -0.554    -0.198    -0.185 -0.1975 -0.1470  0.9692
              Bcc     0.0049     2.640     0.942     0.881 -0.0194  0.9891  0.1460
 
              Baa    -0.0005    -0.270    -0.096    -0.090 -0.3965  0.8558 -0.3322
    77 H(1)   Bbb    -0.0004    -0.211    -0.075    -0.070 -0.3609  0.1874  0.9136
              Bcc     0.0009     0.480     0.171     0.160  0.8441  0.4821  0.2346
 
              Baa    -0.0006    -0.308    -0.110    -0.103 -0.0130 -0.1698  0.9854
    78 H(1)   Bbb    -0.0005    -0.245    -0.087    -0.082 -0.3900  0.9083  0.1514
              Bcc     0.0010     0.553     0.197     0.185  0.9207  0.3824  0.0781
 
              Baa    -0.0007    -0.382    -0.136    -0.128 -0.1213  0.9245 -0.3614
    79 H(1)   Bbb    -0.0005    -0.269    -0.096    -0.090 -0.3175  0.3088  0.8965
              Bcc     0.0012     0.652     0.232     0.217  0.9405  0.2235  0.2561
 
              Baa    -0.0004    -0.205    -0.073    -0.069  0.2576 -0.2263  0.9394
    80 H(1)   Bbb    -0.0002    -0.115    -0.041    -0.038  0.7298 -0.5916 -0.3427
              Bcc     0.0006     0.321     0.114     0.107  0.6333  0.7738  0.0127
 
              Baa    -0.0006    -0.347    -0.124    -0.116 -0.2734  0.0157  0.9618
    81 H(1)   Bbb    -0.0003    -0.178    -0.063    -0.059  0.7484 -0.6247  0.2229
              Bcc     0.0010     0.525     0.187     0.175  0.6043  0.7807  0.1591
 
              Baa    -0.0008    -0.405    -0.145    -0.135  0.9337 -0.2520 -0.2543
    82 H(1)   Bbb    -0.0007    -0.362    -0.129    -0.121  0.1445 -0.3847  0.9117
              Bcc     0.0014     0.767     0.274     0.256  0.3276  0.8880  0.3227
 
              Baa    -0.0031    -1.647    -0.588    -0.549  0.1684  0.9824  0.0804
    83 H(1)   Bbb    -0.0014    -0.738    -0.263    -0.246 -0.1480 -0.0555  0.9874
              Bcc     0.0045     2.384     0.851     0.795  0.9745 -0.1782  0.1361
 
              Baa    -0.0347   -18.491    -6.598    -6.168 -0.3662  0.8277  0.4252
    84 H(1)   Bbb     0.0042     2.240     0.799     0.747  0.6236  0.5575 -0.5480
              Bcc     0.0305    16.251     5.799     5.421  0.6907 -0.0645  0.7203
 
              Baa    -0.0344   -18.361    -6.552    -6.125  0.7990 -0.5249  0.2934
    85 H(1)   Bbb     0.0041     2.182     0.778     0.728  0.5879  0.5790 -0.5649
              Bcc     0.0303    16.180     5.773     5.397  0.1266  0.6238  0.7712
 
              Baa    -0.0200   -10.685    -3.813    -3.564  0.5220  0.8512  0.0541
    86 H(1)   Bbb    -0.0066    -3.525    -1.258    -1.176  0.0077 -0.0682  0.9976
              Bcc     0.0266    14.210     5.070     4.740  0.8529 -0.5203 -0.0422
 
              Baa    -0.0033    -1.746    -0.623    -0.582 -0.3943  0.8700 -0.2959
    87 H(1)   Bbb    -0.0004    -0.213    -0.076    -0.071  0.1062  0.3630  0.9257
              Bcc     0.0037     1.959     0.699     0.653  0.9128  0.3336 -0.2356
 
              Baa    -0.0033    -1.783    -0.636    -0.595 -0.4910  0.7635  0.4194
    88 H(1)   Bbb    -0.0005    -0.282    -0.101    -0.094 -0.2185 -0.5740  0.7892
              Bcc     0.0039     2.065     0.737     0.689  0.8433  0.2959  0.4487
 
              Baa    -0.0016    -0.863    -0.308    -0.288  0.3756  0.9115  0.1676
    89 H(1)   Bbb    -0.0000    -0.014    -0.005    -0.005 -0.1582 -0.1152  0.9807
              Bcc     0.0016     0.877     0.313     0.292  0.9132 -0.3949  0.1009
 
              Baa    -0.0014    -0.732    -0.261    -0.244 -0.2081 -0.5080  0.8358
    90 H(1)   Bbb    -0.0008    -0.424    -0.151    -0.141  0.1081  0.8373  0.5359
              Bcc     0.0022     1.156     0.412     0.385  0.9721 -0.2019  0.1194
 

 ---------------------------------------------------------------------------------

 1\1\GINC-NODE530\SP\UPBE1PBE\def2TZVP\C38H40Fe1N6O5(1+,2)\ZHARTOVSKA\2
 1-Jan-2023\0\\# PBE1PBE/def2TZVP empiricaldispersion=GD3BJ int=(grid=u
 ltrafine) geom=check guess=read scrf=(smd,solvent=Chloroform)\\1ccc_II
 I_D_solv\\1,2\C,0,-9.179,55.032001,107.751999\C,0,-8.656,55.674,109.04
 6997\N,0,-9.337,56.250999,110.028\C,0,-7.346,55.780998,109.43\C,0,-8.5
 17,56.655998,110.967003\N,0,-7.296,56.370998,110.600998\H,0,-10.269,56
 .52,109.991997\C,0,-5.551,53.891998,112.957001\C,0,-7.582,57.994999,11
 4.478996\C,0,-6.051,60.050999,110.455002\C,0,-3.606,56.143002,109.236\
 C,0,-6.256,54.818001,113.740997\C,0,-6.747,54.521999,114.977997\C,0,-7
 .371,55.700001,115.428001\C,0,-7.164,56.651001,114.442001\C,0,-8.086,5
 5.956001,116.762001\C,0,-6.553,53.157001,115.632004\C,0,-5.476,53.0719
 99,116.681\C,0,-5.338,51.675999,117.300003\O,0,-6.184,51.243999,118.07
 0999\O,0,-4.374,50.963001,117.069\C,0,-7.439,58.946999,113.445\C,0,-8.
 009,60.230999,113.431\C,0,-7.608,60.790001,112.216003\C,0,-6.791,59.83
 3,111.614998\C,0,-8.955,60.765999,114.491997\C,0,-7.873,62.019001,111.
 592003\C,0,-8.696,63.097,112.033997\C,0,-5.174,59.214001,109.761002\C,
 0,-4.391,59.620998,108.681\C,0,-3.586,58.502998,108.416\C,0,-4.037,57.
 471001,109.253998\C,0,-4.411,61.018002,108.022003\C,0,-2.583,58.320999
 ,107.460999\C,0,-2.38,59.068001,106.225998\C,0,-3.969,55.112,110.09999
 8\C,0,-3.707,53.769001,109.891998\C,0,-4.284,53.110001,110.969002\C,0,
 -4.859,54.103001,111.761002\C,0,-2.951,53.118999,108.755997\C,0,-4.239
 ,51.602001,111.250999\C,0,-3.022,51.188999,112.087997\C,0,-3.017,49.73
 6,112.529999\O,0,-2.521,49.410999,113.591003\O,0,-3.525,48.903,111.799
 004\N,0,-6.505,56.102001,113.416\N,0,-6.791,58.702999,112.305\N,0,-4.9
 82,57.915001,110.075996\N,0,-4.679,55.299999,111.214996\Fe,0,-5.764,57
 .006001,111.725998\O,0,-4.379,57.564999,112.833\H,0,-8.47882994,54.299
 08433,107.40922351\H,0,-10.12188072,54.5631492,107.94187774\H,0,-9.300
 35533,55.78686697,107.00343354\H,0,-6.50222068,55.43984647,108.8673703
 8\H,0,-8.80002455,57.13849908,111.87913775\H,0,-7.47904095,56.58754034
 ,117.37654048\H,0,-9.02522183,56.43415344,116.57725092\H,0,-8.25213139
 ,55.02475525,117.2620827\H,0,-7.47972763,52.8706197,116.08373583\H,0,-
 6.323465,52.44983052,114.86250832\H,0,-4.5417231,53.34276352,116.23522
 737\H,0,-5.70027299,53.77105398,117.45941105\H,0,-5.91534737,50.793488
 84,118.87503032\H,0,-5.5419176,52.88729057,113.32494188\H,0,-3.5413641
 5,57.90787826,112.513\H,0,-4.379,57.564999,113.793\H,0,-4.20968018,51.
 07792996,110.3185882\H,0,-5.12873146,51.32300875,111.77582398\H,0,-2.1
 391577,51.36883063,111.51080547\H,0,-2.98770606,51.80700086,112.960807
 19\H,0,-1.56611326,49.38201798,113.68561496\H,0,-2.01608841,52.7448324
 8,109.11771476\H,0,-3.52911949,52.31079548,108.35915329\H,0,-2.7726039
 5,53.84121908,107.98692418\H,0,-2.91158606,55.88546894,108.46375263\H,
 0,-3.54203963,61.13558624,107.40882943\H,0,-5.28919586,61.11512614,107
 .4184809\H,0,-4.41561775,61.77094553,108.78223633\H,0,-1.38787206,59.2
 7539721,105.88311468\H,0,-3.22310376,59.40898584,105.6622557\H,0,-1.87
 950976,57.53968841,107.65988401\H,0,-6.1751832,61.02216565,110.0233611
 \H,0,-8.30749674,64.09379938,112.05287069\H,0,-9.70184271,62.90881946,
 112.34667658\H,0,-7.38829493,62.16872245,110.64990721\H,0,-8.49365249,
 61.58701664,114.9999227\H,0,-9.86064458,61.0970181,114.02817132\H,0,-9
 .17714853,59.99086332,115.19535658\H,0,-8.05468308,58.3282858,115.3792
 1298\\Version=ES64L-G16RevA.03\State=2-A\HF=-3438.5218292\S2=1.049807\
 S2-1=0.\S2A=0.801628\RMSD=1.368e-09\Dipole=-1.5447797,3.3876315,0.4287
 067\Quadrupole=16.4052679,-36.215701,19.8104331,-9.4611517,-0.0380849,
 -8.6306749\PG=C01 [X(C38H40Fe1N6O5)]\\@


 I FIND THAT THE THREE TRULY GREAT TIMES FOR THINKING THOUGHTS
 ARE WHEN I AM STANDING IN THE SHOWER, SITTING ON THE JOHN, OR WALKING.

                                    -- COLIN FLETCHER
 Job cpu time:       2 days 15 hours 29 minutes 45.7 seconds.
 Elapsed time:       0 days 15 hours 55 minutes 10.3 seconds.
 File lengths (MBytes):  RWF=   3716 Int=      0 D2E=      0 Chk=    262 Scr=      1
 Normal termination of Gaussian 16 at Sat Jan 21 07:55:19 2023.
