 Initial command:
 /afs/math/software/gaussian/g16.A03/g16/l1.exe "/scratch/zhartovska_gaussian.dL9TxGN/Gau-31122.inp" -scrdir="/scratch/zhartovska_gaussian.dL9TxGN/"
 Entering Link 1 = /afs/math/software/gaussian/g16.A03/g16/l1.exe PID=     11852.
  
 Copyright (c) 1988,1990,1992,1993,1995,1998,2003,2009,2016,
            Gaussian, Inc.  All Rights Reserved.
  
 This is part of the Gaussian(R) 16 program.  It is based on
 the Gaussian(R) 09 system (copyright 2009, Gaussian, Inc.),
 the Gaussian(R) 03 system (copyright 2003, Gaussian, Inc.),
 the Gaussian(R) 98 system (copyright 1998, Gaussian, Inc.),
 the Gaussian(R) 94 system (copyright 1995, Gaussian, Inc.),
 the Gaussian 92(TM) system (copyright 1992, Gaussian, Inc.),
 the Gaussian 90(TM) system (copyright 1990, Gaussian, Inc.),
 the Gaussian 88(TM) system (copyright 1988, Gaussian, Inc.),
 the Gaussian 86(TM) system (copyright 1986, Carnegie Mellon
 University), and the Gaussian 82(TM) system (copyright 1983,
 Carnegie Mellon University). Gaussian is a federally registered
 trademark of Gaussian, Inc.
  
 This software contains proprietary and confidential information,
 including trade secrets, belonging to Gaussian, Inc.
  
 This software is provided under written license and may be
 used, copied, transmitted, or stored only in accord with that
 written license.
  
 The following legend is applicable only to US Government
 contracts under FAR:
  
                    RESTRICTED RIGHTS LEGEND
  
 Use, reproduction and disclosure by the US Government is
 subject to restrictions as set forth in subparagraphs (a)
 and (c) of the Commercial Computer Software - Restricted
 Rights clause in FAR 52.227-19.
  
 Gaussian, Inc.
 340 Quinnipiac St., Bldg. 40, Wallingford CT 06492
  
  
 ---------------------------------------------------------------
 Warning -- This program may not be used in any manner that
 competes with the business of Gaussian, Inc. or will provide
 assistance to any competitor of Gaussian, Inc.  The licensee
 of this program is prohibited from giving any competitor of
 Gaussian, Inc. access to this program.  By using this program,
 the user acknowledges that Gaussian, Inc. is engaged in the
 business of creating and licensing software in the field of
 computational chemistry and represents and warrants to the
 licensee that it is not a competitor of Gaussian, Inc. and that
 it will not use this program in any manner prohibited above.
 ---------------------------------------------------------------
  

 Cite this work as:
 Gaussian 16, Revision A.03,
 M. J. Frisch, G. W. Trucks, H. B. Schlegel, G. E. Scuseria, 
 M. A. Robb, J. R. Cheeseman, G. Scalmani, V. Barone, 
 G. A. Petersson, H. Nakatsuji, X. Li, M. Caricato, A. V. Marenich, 
 J. Bloino, B. G. Janesko, R. Gomperts, B. Mennucci, H. P. Hratchian, 
 J. V. Ortiz, A. F. Izmaylov, J. L. Sonnenberg, D. Williams-Young, 
 F. Ding, F. Lipparini, F. Egidi, J. Goings, B. Peng, A. Petrone, 
 T. Henderson, D. Ranasinghe, V. G. Zakrzewski, J. Gao, N. Rega, 
 G. Zheng, W. Liang, M. Hada, M. Ehara, K. Toyota, R. Fukuda, 
 J. Hasegawa, M. Ishida, T. Nakajima, Y. Honda, O. Kitao, H. Nakai, 
 T. Vreven, K. Throssell, J. A. Montgomery, Jr., J. E. Peralta, 
 F. Ogliaro, M. J. Bearpark, J. J. Heyd, E. N. Brothers, K. N. Kudin, 
 V. N. Staroverov, T. A. Keith, R. Kobayashi, J. Normand, 
 K. Raghavachari, A. P. Rendell, J. C. Burant, S. S. Iyengar, 
 J. Tomasi, M. Cossi, J. M. Millam, M. Klene, C. Adamo, R. Cammi, 
 J. W. Ochterski, R. L. Martin, K. Morokuma, O. Farkas, 
 J. B. Foresman, and D. J. Fox, Gaussian, Inc., Wallingford CT, 2016.
 
 ******************************************
 Gaussian 16:  AM64L-G16RevA.03 25-Dec-2016
                27-Jan-2023 
 ******************************************
 %nprocs=12
 Will use up to   12 processors via shared memory.
 %mem=16GB
 %chk=1ccg_III_H.chk
 ----------------------------------------------------------------------
 # PBE1PBE/def2TZVP empiricaldispersion=GD3BJ int=(grid=ultrafine) geom
 =check guess=read scrf=(smd,solvent=Chloroform)
 ----------------------------------------------------------------------
 1/29=2,38=1,172=1/1;
 2/12=2,40=1/2;
 3/5=44,7=101,11=2,14=-4,25=1,30=1,70=32201,72=7,74=-13,75=-5,116=-2,124=41/1,2,3;
 4/5=1/1;
 5/5=2,38=6,53=7/2;
 6/7=2,8=2,9=2,10=2,28=1/1;
 99/5=1,9=1/99;
 ---------------
 1ccg_III_H_solv
 ---------------
 Structure from the checkpoint file:  "1ccg_III_H.chk"
 Charge =  1 Multiplicity = 6
 Z-Matrix found in chk file.
 C,0,-5.506,53.923,112.93
 C,0,-7.562,57.972,114.377998
 C,0,-5.926,60.125999,110.472
 C,0,-3.654,56.113998,109.164001
 C,0,-6.228,54.827,113.697998
 C,0,-6.758,54.532001,114.942001
 C,0,-7.395,55.715,115.374001
 C,0,-7.147,56.641998,114.369003
 C,0,-8.23,55.922001,116.644997
 C,0,-6.626,53.173,115.640999
 C,0,-5.472,53.012001,116.584
 C,0,-5.394,51.617001,117.223999
 O,0,-6.246,51.259998,118.040001
 O,0,-4.475,50.847,116.942001
 C,0,-7.381,58.931999,113.375999
 C,0,-7.941,60.210999,113.411003
 C,0,-7.522,60.812,112.232002
 C,0,-6.685,59.879002,111.612
 C,0,-8.919,60.678001,114.485001
 C,0,-7.826,62.055,111.651001
 C,0,-8.743,63.063999,112.110001
 C,0,-5.081,59.252998,109.775002
 C,0,-4.298,59.622002,108.682999
 C,0,-3.589,58.445999,108.365997
 C,0,-4.047,57.462002,109.228996
 C,0,-4.188,61.047001,108.081001
 C,0,-2.635,58.152,107.377998
 C,0,-2.272,58.924,106.227997
 C,0,-4.,55.082001,110.014
 C,0,-3.674,53.752998,109.834
 C,0,-4.208,53.123001,110.963997
 C,0,-4.83,54.109001,111.714996
 C,0,-3.02,53.098999,108.612999
 C,0,-4.19,51.630001,111.269997
 C,0,-3.016,51.229,112.144997
 C,0,-3.008,49.790001,112.600998
 O,0,-2.443,49.528,113.656998
 O,0,-3.547,48.922001,111.917999
 N,0,-6.462,56.099998,113.359001
 N,0,-6.701,58.710999,112.254997
 N,0,-4.921,57.955002,110.103996
 N,0,-4.723,55.273998,111.115997
 Fe,0,-5.857,56.937,111.602997
 N,0,-9.264,56.771999,109.591003
 C,0,-8.576,56.827999,110.692001
 N,0,-7.374,56.400002,110.419998
 C,0,-7.308,56.078999,109.165001
 C,0,-8.548,56.317001,108.603996
 H,0,-10.166,57.108002,109.492996
 O,0,-4.422,57.485001,112.862
 H,0,-8.85064843,56.16247539,107.58938979
 H,0,-6.44757431,55.69817754,108.65554772
 H,0,-8.92966584,57.16293345,111.6447021
 H,0,-8.47703616,61.47303368,115.04846439
 H,0,-9.81819471,61.02643021,114.02137835
 H,0,-9.14761543,59.86203563,115.13832749
 H,0,-8.42477212,64.08300091,112.18256908
 H,0,-9.74325724,62.79545327,112.37882928
 H,0,-7.30480636,62.28163653,110.74441781
 H,0,-5.99760269,61.11670074,110.07415189
 H,0,-3.29125105,61.12135216,107.50202499
 H,0,-5.03415292,61.23551722,107.45379539
 H,0,-4.16270198,61.7673059,108.87183655
 H,0,-1.30666668,58.80008259,105.78338924
 H,0,-2.9660696,59.62481928,105.8132444
 H,0,-2.10950113,57.22809341,107.5010734
 H,0,-3.00493131,55.8547559,108.35381376
 H,0,-2.07770052,52.67820197,108.89566761
 H,0,-3.65773385,52.32595592,108.23803241
 H,0,-2.86771719,53.83599136,107.8523728
 H,0,-4.13470648,51.0890761,110.34845325
 H,0,-5.09898196,51.36890342,111.77047662
 H,0,-2.11413607,51.41183062,111.59899845
 H,0,-3.01659566,51.85485271,113.01287259
 H,0,-3.57066867,57.92866188,112.862
 H,0,-5.12406459,58.13975691,112.862
 H,0,-7.52743218,52.99509964,116.1893342
 H,0,-6.54208858,52.42010505,114.88534824
 H,0,-4.56411051,53.19346777,116.04761721
 H,0,-5.56200633,53.74079509,117.36224034
 H,0,-3.56332963,51.1294171,117.04543081
 H,0,-7.6910114,56.54435544,117.32841945
 H,0,-9.15708263,56.39154393,116.39014951
 H,0,-8.42404701,54.97441953,117.10252855
 H,0,-5.45781913,52.93038165,113.32659478
 H,0,-8.08069943,58.29811494,115.25520946
 H,0,-3.01035017,48.29644599,111.42577153
 Recover connectivity data from disk.
 Stoichiometry    C37H38FeN6O5(1+,6)
 Framework group  C1[X(C37H38FeN6O5)]
 Deg. of freedom   255
 Full point group                 C1      NOp   1
 Largest Abelian subgroup         C1      NOp   1
 Largest concise Abelian subgroup C1      NOp   1
                         Standard orientation:                         
 ---------------------------------------------------------------------
 Center     Atomic      Atomic             Coordinates (Angstroms)
 Number     Number       Type             X           Y           Z
 ---------------------------------------------------------------------
      1          6           0       -2.347125   -0.118396    0.266940
      2          6           0        1.032194   -3.442471   -0.232027
      3          6           0        4.275182    0.005496   -0.641394
      4          6           0        0.830362    3.328305   -0.394087
      5          6           0       -1.729458   -1.358472    0.171965
      6          6           0       -2.412739   -2.562007    0.162091
      7          6           0       -1.422406   -3.560337    0.041847
      8          6           0       -0.224284   -2.864462   -0.063560
      9          6           0       -1.613800   -5.082680    0.078513
     10          6           0       -3.937964   -2.694353    0.257386
     11          6           0       -4.688401   -2.763664   -1.038349
     12          6           0       -6.211037   -2.869786   -0.859397
     13          8           0       -6.711277   -3.895741   -0.394219
     14          8           0       -6.948730   -1.940814   -1.190766
     15          6           0        2.270839   -2.794451   -0.296754
     16          6           0        3.497948   -3.460056   -0.339653
     17          6           0        4.446935   -2.447990   -0.383850
     18          6           0        3.720421   -1.254340   -0.437084
     19          6           0        3.646563   -4.971920   -0.197434
     20          6           0        5.851584   -2.474407   -0.347923
     21          6           0        6.727707   -3.604065   -0.186895
     22          6           0        3.632690    1.249217   -0.689602
     23          6           0        4.271535    2.452891   -0.980752
     24          6           0        3.226112    3.397974   -0.972701
     25          6           0        2.075418    2.713403   -0.612078
     26          6           0        5.770182    2.624982   -1.340702
     27          6           0        3.199991    4.783928   -1.198846
     28          6           0        4.299397    5.698136   -1.274909
     29          6           0       -0.378363    2.728224   -0.100626
     30          6           0       -1.546122    3.392460    0.215689
     31          6           0       -2.479160    2.363206    0.386050
     32          6           0       -1.799967    1.170766    0.186393
     33          6           0       -1.739767    4.890045    0.472621
     34          6           0       -3.938533    2.514034    0.798953
     35          6           0       -4.877845    2.571364   -0.392311
     36          6           0       -6.349898    2.583826   -0.058214
     37          8           0       -7.128233    2.125592   -0.887203
     38          8           0       -6.737399    3.050903    1.010484
     39          7           0       -0.412049   -1.545883    0.032290
     40          7           0        2.415914   -1.473068   -0.268700
     41          7           0        2.310920    1.410121   -0.475905
     42          7           0       -0.533349    1.405621   -0.074350
     43         26           0        0.953183   -0.034102    0.003887
     44          7           0        2.276907   -0.277308    3.728347
     45          6           0        1.739951   -0.785012    2.659426
     46          7           0        1.249957    0.204439    1.964542
     47          6           0        1.475700    1.318734    2.588883
     48          6           0        2.151214    1.017798    3.755969
     49          1           0        2.783842   -0.783995    4.378264
     50          8           0        0.649681   -0.381031   -1.927989
     51          1           0        2.493080    1.695089    4.510491
     52          1           0        1.190018    2.295773    2.259216
     53          1           0        1.706009   -1.821978    2.397798
     54          1           0        4.036987   -5.379027   -1.106683
     55          1           0        4.316568   -5.190269    0.607748
     56          1           0        2.690355   -5.406696    0.006369
     57          1           0        7.545125   -3.747698   -0.862245
     58          1           0        6.561914   -4.300635    0.608216
     59          1           0        6.334902   -1.525789   -0.454819
     60          1           0        5.335890    0.026968   -0.780450
     61          1           0        5.911760    3.560275   -1.840784
     62          1           0        6.356326    2.606751   -0.445715
     63          1           0        6.076446    1.826653   -1.983954
     64          1           0        4.195806    6.615671   -1.815556
     65          1           0        5.224549    5.463761   -0.791110
     66          1           0        2.229263    5.213871   -1.332024
     67          1           0        0.817472    4.395915   -0.464378
     68          1           0       -2.406652    5.294310   -0.260000
     69          1           0       -2.152999    5.033893    1.449067
     70          1           0       -0.794918    5.388062    0.408275
     71          1           0       -4.045595    3.414449    1.367012
     72          1           0       -4.211252    1.682223    1.414270
     73          1           0       -4.654454    3.455456   -0.952114
     74          1           0       -4.682963    1.721900   -1.013063
     75          1           0        0.886715   -0.024905   -2.787401
     76          1           0        1.362297   -0.936939   -1.604347
     77          1           0       -4.158022   -3.581327    0.813940
     78          1           0       -4.308133   -1.855251    0.808549
     79          1           0       -4.471352   -1.883521   -1.606801
     80          1           0       -4.347969   -3.617857   -1.585488
     81          1           0       -6.909489   -1.591975   -2.084283
     82          1           0       -1.445035   -5.486987   -0.897681
     83          1           0       -0.917970   -5.513132    0.768028
     84          1           0       -2.611831   -5.309261    0.390754
     85          1           0       -3.404677   -0.151315    0.426314
     86          1           0        1.052471   -4.508431   -0.322680
     87          1           0       -7.188037    3.898366    1.028699
 ---------------------------------------------------------------------
 Rotational constants (GHZ):           0.0821145           0.0475077           0.0339279
 Standard basis: def2TZVP (5D, 7F)
 There are  2008 symmetry adapted cartesian basis functions of A   symmetry.
 There are  1761 symmetry adapted basis functions of A   symmetry.
  1761 basis functions,  2854 primitive gaussians,  2008 cartesian basis functions
   186 alpha electrons      181 beta electrons
       nuclear repulsion energy      7372.7539489848 Hartrees.
 NAtoms=   87 NActive=   87 NUniq=   87 SFac= 1.00D+00 NAtFMM=   60 NAOKFM=T Big=T
 Integral buffers will be    131072 words long.
 Raffenetti 2 integral format.
 Two-electron integral symmetry is turned on.
 Nuclear repulsion after empirical dispersion term =     7372.6319724319 Hartrees.
 ------------------------------------------------------------------------------
 Polarizable Continuum Model (PCM)
 =================================
 Model                : PCM.
 Atomic radii         : SMD-Coulomb.
 Polarization charges : Total charges.
 Charge compensation  : None.
 Solution method      : On-the-fly selection.
 Cavity type          : VdW (van der Waals Surface) (Alpha=1.000).
 Cavity algorithm     : GePol (No added spheres)
                        Default sphere list used, NSphG=   87.
                        Lebedev-Laikov grids with approx.  5.0 points / Ang**2.
                        Smoothing algorithm: York/Karplus (Gamma=1.0000).
                        Polarization charges: spherical gaussians, with
                                              point-specific exponents (IZeta= 3).
                        Self-potential: point-specific (ISelfS= 7).
                        Self-field    : sphere-specific E.n sum rule (ISelfD= 2).
 Solvent              : Chloroform, Eps=   4.711300 Eps(inf)=   2.090627
 ------------------------------------------------------------------------------
 ------------------------------------------------------------------------------
 Atomic radii for non-electrostatic terms: SMD-CDS.
 ------------------------------------------------------------------------------
 Nuclear repulsion after PCM non-electrostatic terms =     7372.6122320347 Hartrees.
 One-electron integrals computed using PRISM.
   1 Symmetry operations used in ECPInt.
 ECPInt:  NShTT=  241860 NPrTT=  750929 LenC2=  176505 LenP2D=  356554.
 LDataN:  DoStor=T MaxTD1= 6 Len=  172
 NBasis=  1761 RedAO= T EigKep=  2.72D-06  NBF=  1761
 NBsUse=  1761 1.00D-06 EigRej= -1.00D+00 NBFU=  1761
 Initial guess from the checkpoint file:  "1ccg_III_H.chk"
 B after Tr=    -0.000000    0.000000   -0.000000
         Rot=    1.000000    0.000000   -0.000000   -0.000000 Ang=   0.00 deg.
 Initial guess <Sx>= 0.0000 <Sy>= 0.0000 <Sz>= 2.5000 <S**2>= 8.7642 S= 2.5024
 Requested convergence on RMS density matrix=1.00D-08 within 128 cycles.
 Requested convergence on MAX density matrix=1.00D-06.
 Requested convergence on             energy=1.00D-06.
 No special actions if energy rises.
 Inv3:  Mode=1 IEnd=   118956627.
 Iteration    1 A*A^-1 deviation from unit magnitude is 4.22D-15 for   1426.
 Iteration    1 A*A^-1 deviation from orthogonality  is 2.43D-15 for   3285    930.
 Iteration    1 A^-1*A deviation from unit magnitude is 4.00D-15 for   3072.
 Iteration    1 A^-1*A deviation from orthogonality  is 1.45D-14 for   3807   3753.
 Restarting incremental Fock formation.
 Error on total polarization charges =  0.07404
 SCF Done:  E(UPBE1PBE) =  -3399.22885063     A.U. after   27 cycles
            NFock= 27  Conv=0.49D-08     -V/T= 2.0025
 <Sx>= 0.0000 <Sy>= 0.0000 <Sz>= 2.5000 <S**2>= 8.7629 S= 2.5021
 <L.S>= 0.000000000000E+00
 SMD-CDS (non-electrostatic) energy       (kcal/mol) =     -12.39
 (included in total energy above)
 Annihilation of the first spin contaminant:
 S**2 before annihilation     8.7629,   after     8.7500

 **********************************************************************

            Population analysis using the SCF density.

 **********************************************************************

 Orbital symmetries:
 Alpha Orbitals:
       Occupied  (A) (A) (A) (A) (A) (A) (A) (A) (A) (A) (A) (A)
                 (A) (A) (A) (A) (A) (A) (A) (A) (A) (A) (A) (A)
                 (A) (A) (A) (A) (A) (A) (A) (A) (A) (A) (A) (A)
                 (A) (A) (A) (A) (A) (A) (A) (A) (A) (A) (A) (A)
                 (A) (A) (A) (A) (A) (A) (A) (A) (A) (A) (A) (A)
                 (A) (A) (A) (A) (A) (A) (A) (A) (A) (A) (A) (A)
                 (A) (A) (A) (A) (A) (A) (A) (A) (A) (A) (A) (A)
                 (A) (A) (A) (A) (A) (A) (A) (A) (A) (A) (A) (A)
                 (A) (A) (A) (A) (A) (A) (A) (A) (A) (A) (A) (A)
                 (A) (A) (A) (A) (A) (A) (A) (A) (A) (A) (A) (A)
                 (A) (A) (A) (A) (A) (A) (A) (A) (A) (A) (A) (A)
                 (A) (A) (A) (A) (A) (A) (A) (A) (A) (A) (A) (A)
                 (A) (A) (A) (A) (A) (A) (A) (A) (A) (A) (A) (A)
                 (A) (A) (A) (A) (A) (A) (A) (A) (A) (A) (A) (A)
                 (A) (A) (A) (A) (A) (A) (A) (A) (A) (A) (A) (A)
                 (A) (A) (A) (A) (A) (A)
       Virtual   (A) (A) (A) (A) (A) (A) (A) (A) (A) (A) (A) (A)
                 (A) (A) (A) (A) (A) (A) (A) (A) (A) (A) (A) (A)
                 (A) (A) (A) (A) (A) (A) (A) (A) (A) (A) (A) (A)
                 (A) (A) (A) (A) (A) (A) (A) (A) (A) (A) (A) (A)
                 (A) (A) (A) (A) (A) (A) (A) (A) (A) (A) (A) (A)
                 (A) (A) (A) (A) (A) (A) (A) (A) (A) (A) (A) (A)
                 (A) (A) (A) (A) (A) (A) (A) (A) (A) (A) (A) (A)
                 (A) (A) (A) (A) (A) (A) (A) (A) (A) (A) (A) (A)
                 (A) (A) (A) (A) (A) (A) (A) (A) (A) (A) (A) (A)
                 (A) (A) (A) (A) (A) (A) (A) (A) (A) (A) (A) (A)
                 (A) (A) (A) (A) (A) (A) (A) (A) (A) (A) (A) (A)
                 (A) (A) (A) (A) (A) (A) (A) (A) (A) (A) (A) (A)
                 (A) (A) (A) (A) (A) (A) (A) (A) (A) (A) (A) (A)
                 (A) (A) (A) (A) (A) (A) (A) (A) (A) (A) (A) (A)
                 (A) (A) (A) (A) (A) (A) (A) (A) (A) (A) (A) (A)
                 (A) (A) (A) (A) (A) (A) (A) (A) (A) (A) (A) (A)
                 (A) (A) (A) (A) (A) (A) (A) (A) (A) (A) (A) (A)
                 (A) (A) (A) (A) (A) (A) (A) (A) (A) (A) (A) (A)
                 (A) (A) (A) (A) (A) (A) (A) (A) (A) (A) (A) (A)
                 (A) (A) (A) (A) (A) (A) (A) (A) (A) (A) (A) (A)
                 (A) (A) (A) (A) (A) (A) (A) (A) (A) (A) (A) (A)
                 (A) (A) (A) (A) (A) (A) (A) (A) (A) (A) (A) (A)
                 (A) (A) (A) (A) (A) (A) (A) (A) (A) (A) (A) (A)
                 (A) (A) (A) (A) (A) (A) (A) (A) (A) (A) (A) (A)
                 (A) (A) (A) (A) (A) (A) (A) (A) (A) (A) (A) (A)
                 (A) (A) (A) (A) (A) (A) (A) (A) (A) (A) (A) (A)
                 (A) (A) (A) (A) (A) (A) (A) (A) (A) (A) (A) (A)
                 (A) (A) (A) (A) (A) (A) (A) (A) (A) (A) (A) (A)
                 (A) (A) (A) (A) (A) (A) (A) (A) (A) (A) (A) (A)
                 (A) (A) (A) (A) (A) (A) (A) (A) (A) (A) (A) (A)
                 (A) (A) (A) (A) (A) (A) (A) (A) (A) (A) (A) (A)
                 (A) (A) (A) (A) (A) (A) (A) (A) (A) (A) (A) (A)
                 (A) (A) (A) (A) (A) (A) (A) (A) (A) (A) (A) (A)
                 (A) (A) (A) (A) (A) (A) (A) (A) (A) (A) (A) (A)
                 (A) (A) (A) (A) (A) (A) (A) (A) (A) (A) (A) (A)
                 (A) (A) (A) (A) (A) (A) (A) (A) (A) (A) (A) (A)
                 (A) (A) (A) (A) (A) (A) (A) (A) (A) (A) (A) (A)
                 (A) (A) (A) (A) (A) (A) (A) (A) (A) (A) (A) (A)
                 (A) (A) (A) (A) (A) (A) (A) (A) (A) (A) (A) (A)
                 (A) (A) (A) (A) (A) (A) (A) (A) (A) (A) (A) (A)
                 (A) (A) (A) (A) (A) (A) (A) (A) (A) (A) (A) (A)
                 (A) (A) (A) (A) (A) (A) (A) (A) (A) (A) (A) (A)
                 (A) (A) (A) (A) (A) (A) (A) (A) (A) (A) (A) (A)
                 (A) (A) (A) (A) (A) (A) (A) (A) (A) (A) (A) (A)
                 (A) (A) (A) (A) (A) (A) (A) (A) (A) (A) (A) (A)
                 (A) (A) (A) (A) (A) (A) (A) (A) (A) (A) (A) (A)
                 (A) (A) (A) (A) (A) (A) (A) (A) (A) (A) (A) (A)
                 (A) (A) (A) (A) (A) (A) (A) (A) (A) (A) (A) (A)
                 (A) (A) (A) (A) (A) (A) (A) (A) (A) (A) (A) (A)
                 (A) (A) (A) (A) (A) (A) (A) (A) (A) (A) (A) (A)
                 (A) (A) (A) (A) (A) (A) (A) (A) (A) (A) (A) (A)
                 (A) (A) (A) (A) (A) (A) (A) (A) (A) (A) (A) (A)
                 (A) (A) (A) (A) (A) (A) (A) (A) (A) (A) (A) (A)
                 (A) (A) (A) (A) (A) (A) (A) (A) (A) (A) (A) (A)
                 (A) (A) (A) (A) (A) (A) (A) (A) (A) (A) (A) (A)
                 (A) (A) (A) (A) (A) (A) (A) (A) (A) (A) (A) (A)
                 (A) (A) (A) (A) (A) (A) (A) (A) (A) (A) (A) (A)
                 (A) (A) (A) (A) (A) (A) (A) (A) (A) (A) (A) (A)
                 (A) (A) (A) (A) (A) (A) (A) (A) (A) (A) (A) (A)
                 (A) (A) (A) (A) (A) (A) (A) (A) (A) (A) (A) (A)
                 (A) (A) (A) (A) (A) (A) (A) (A) (A) (A) (A) (A)
                 (A) (A) (A) (A) (A) (A) (A) (A) (A) (A) (A) (A)
                 (A) (A) (A) (A) (A) (A) (A) (A) (A) (A) (A) (A)
                 (A) (A) (A) (A) (A) (A) (A) (A) (A) (A) (A) (A)
                 (A) (A) (A) (A) (A) (A) (A) (A) (A) (A) (A) (A)
                 (A) (A) (A) (A) (A) (A) (A) (A) (A) (A) (A) (A)
                 (A) (A) (A) (A) (A) (A) (A) (A) (A) (A) (A) (A)
                 (A) (A) (A) (A) (A) (A) (A) (A) (A) (A) (A) (A)
                 (A) (A) (A) (A) (A) (A) (A) (A) (A) (A) (A) (A)
                 (A) (A) (A) (A) (A) (A) (A) (A) (A) (A) (A) (A)
                 (A) (A) (A) (A) (A) (A) (A) (A) (A) (A) (A) (A)
                 (A) (A) (A) (A) (A) (A) (A) (A) (A) (A) (A) (A)
                 (A) (A) (A) (A) (A) (A) (A) (A) (A) (A) (A) (A)
                 (A) (A) (A) (A) (A) (A) (A) (A) (A) (A) (A) (A)
                 (A) (A) (A) (A) (A) (A) (A) (A) (A) (A) (A) (A)
                 (A) (A) (A) (A) (A) (A) (A) (A) (A) (A) (A) (A)
                 (A) (A) (A) (A) (A) (A) (A) (A) (A) (A) (A) (A)
                 (A) (A) (A) (A) (A) (A) (A) (A) (A) (A) (A) (A)
                 (A) (A) (A) (A) (A) (A) (A) (A) (A) (A) (A) (A)
                 (A) (A) (A) (A) (A) (A) (A) (A) (A) (A) (A) (A)
                 (A) (A) (A) (A) (A) (A) (A) (A) (A) (A) (A) (A)
                 (A) (A) (A) (A) (A) (A) (A) (A) (A) (A) (A) (A)
                 (A) (A) (A) (A) (A) (A) (A) (A) (A) (A) (A) (A)
                 (A) (A) (A) (A) (A) (A) (A) (A) (A) (A) (A) (A)
                 (A) (A) (A) (A) (A) (A) (A) (A) (A) (A) (A) (A)
                 (A) (A) (A) (A) (A) (A) (A) (A) (A) (A) (A) (A)
                 (A) (A) (A) (A) (A) (A) (A) (A) (A) (A) (A) (A)
                 (A) (A) (A) (A) (A) (A) (A) (A) (A) (A) (A) (A)
                 (A) (A) (A) (A) (A) (A) (A) (A) (A) (A) (A) (A)
                 (A) (A) (A) (A) (A) (A) (A) (A) (A) (A) (A) (A)
                 (A) (A) (A) (A) (A) (A) (A) (A) (A) (A) (A) (A)
                 (A) (A) (A) (A) (A) (A) (A) (A) (A) (A) (A) (A)
                 (A) (A) (A) (A) (A) (A) (A) (A) (A) (A) (A) (A)
                 (A) (A) (A) (A) (A) (A) (A) (A) (A) (A) (A) (A)
                 (A) (A) (A) (A) (A) (A) (A) (A) (A) (A) (A) (A)
                 (A) (A) (A) (A) (A) (A) (A) (A) (A) (A) (A) (A)
                 (A) (A) (A) (A) (A) (A) (A) (A) (A) (A) (A) (A)
                 (A) (A) (A) (A) (A) (A) (A) (A) (A) (A) (A) (A)
                 (A) (A) (A) (A) (A) (A) (A) (A) (A) (A) (A) (A)
                 (A) (A) (A) (A) (A) (A) (A) (A) (A) (A) (A) (A)
                 (A) (A) (A) (A) (A) (A) (A) (A) (A) (A) (A) (A)
                 (A) (A) (A) (A) (A) (A) (A) (A) (A) (A) (A) (A)
                 (A) (A) (A) (A) (A) (A) (A) (A) (A) (A) (A) (A)
                 (A) (A) (A) (A) (A) (A) (A) (A) (A) (A) (A) (A)
                 (A) (A) (A) (A) (A) (A) (A) (A) (A) (A) (A) (A)
                 (A) (A) (A) (A) (A) (A) (A) (A) (A) (A) (A) (A)
                 (A) (A) (A) (A) (A) (A) (A) (A) (A) (A) (A) (A)
                 (A) (A) (A) (A) (A) (A) (A) (A) (A) (A) (A) (A)
                 (A) (A) (A) (A) (A) (A) (A) (A) (A) (A) (A) (A)
                 (A) (A) (A) (A) (A) (A) (A) (A) (A) (A) (A) (A)
                 (A) (A) (A) (A) (A) (A) (A) (A) (A) (A) (A) (A)
                 (A) (A) (A) (A) (A) (A) (A) (A) (A) (A) (A) (A)
                 (A) (A) (A) (A) (A) (A) (A) (A) (A) (A) (A) (A)
                 (A) (A) (A) (A) (A) (A) (A) (A) (A) (A) (A) (A)
                 (A) (A) (A) (A) (A) (A) (A) (A) (A) (A) (A) (A)
                 (A) (A) (A) (A) (A) (A) (A) (A) (A) (A) (A) (A)
                 (A) (A) (A) (A) (A) (A) (A) (A) (A) (A) (A) (A)
                 (A) (A) (A) (A) (A) (A) (A) (A) (A) (A) (A) (A)
                 (A) (A) (A) (A) (A) (A) (A) (A) (A) (A) (A) (A)
                 (A) (A) (A) (A) (A) (A) (A) (A) (A) (A) (A) (A)
                 (A) (A) (A) (A) (A) (A) (A) (A) (A) (A) (A) (A)
                 (A) (A) (A) (A) (A) (A) (A) (A) (A) (A) (A) (A)
                 (A) (A) (A) (A) (A) (A) (A) (A) (A) (A) (A) (A)
                 (A) (A) (A) (A) (A) (A) (A) (A) (A) (A) (A) (A)
                 (A) (A) (A) (A) (A) (A) (A) (A) (A) (A) (A) (A)
                 (A) (A) (A) (A) (A) (A) (A) (A) (A) (A) (A) (A)
                 (A) (A) (A) (A) (A) (A) (A) (A) (A) (A) (A) (A)
                 (A) (A) (A) (A) (A) (A) (A) (A) (A) (A) (A) (A)
                 (A) (A) (A) (A) (A) (A) (A) (A) (A) (A) (A) (A)
                 (A) (A) (A) (A) (A) (A) (A) (A) (A) (A) (A) (A)
                 (A) (A) (A) (A) (A) (A) (A) (A) (A) (A) (A) (A)
                 (A) (A) (A)
 Beta  Orbitals:
       Occupied  (A) (A) (A) (A) (A) (A) (A) (A) (A) (A) (A) (A)
                 (A) (A) (A) (A) (A) (A) (A) (A) (A) (A) (A) (A)
                 (A) (A) (A) (A) (A) (A) (A) (A) (A) (A) (A) (A)
                 (A) (A) (A) (A) (A) (A) (A) (A) (A) (A) (A) (A)
                 (A) (A) (A) (A) (A) (A) (A) (A) (A) (A) (A) (A)
                 (A) (A) (A) (A) (A) (A) (A) (A) (A) (A) (A) (A)
                 (A) (A) (A) (A) (A) (A) (A) (A) (A) (A) (A) (A)
                 (A) (A) (A) (A) (A) (A) (A) (A) (A) (A) (A) (A)
                 (A) (A) (A) (A) (A) (A) (A) (A) (A) (A) (A) (A)
                 (A) (A) (A) (A) (A) (A) (A) (A) (A) (A) (A) (A)
                 (A) (A) (A) (A) (A) (A) (A) (A) (A) (A) (A) (A)
                 (A) (A) (A) (A) (A) (A) (A) (A) (A) (A) (A) (A)
                 (A) (A) (A) (A) (A) (A) (A) (A) (A) (A) (A) (A)
                 (A) (A) (A) (A) (A) (A) (A) (A) (A) (A) (A) (A)
                 (A) (A) (A) (A) (A) (A) (A) (A) (A) (A) (A) (A)
                 (A)
       Virtual   (A) (A) (A) (A) (A) (A) (A) (A) (A) (A) (A) (A)
                 (A) (A) (A) (A) (A) (A) (A) (A) (A) (A) (A) (A)
                 (A) (A) (A) (A) (A) (A) (A) (A) (A) (A) (A) (A)
                 (A) (A) (A) (A) (A) (A) (A) (A) (A) (A) (A) (A)
                 (A) (A) (A) (A) (A) (A) (A) (A) (A) (A) (A) (A)
                 (A) (A) (A) (A) (A) (A) (A) (A) (A) (A) (A) (A)
                 (A) (A) (A) (A) (A) (A) (A) (A) (A) (A) (A) (A)
                 (A) (A) (A) (A) (A) (A) (A) (A) (A) (A) (A) (A)
                 (A) (A) (A) (A) (A) (A) (A) (A) (A) (A) (A) (A)
                 (A) (A) (A) (A) (A) (A) (A) (A) (A) (A) (A) (A)
                 (A) (A) (A) (A) (A) (A) (A) (A) (A) (A) (A) (A)
                 (A) (A) (A) (A) (A) (A) (A) (A) (A) (A) (A) (A)
                 (A) (A) (A) (A) (A) (A) (A) (A) (A) (A) (A) (A)
                 (A) (A) (A) (A) (A) (A) (A) (A) (A) (A) (A) (A)
                 (A) (A) (A) (A) (A) (A) (A) (A) (A) (A) (A) (A)
                 (A) (A) (A) (A) (A) (A) (A) (A) (A) (A) (A) (A)
                 (A) (A) (A) (A) (A) (A) (A) (A) (A) (A) (A) (A)
                 (A) (A) (A) (A) (A) (A) (A) (A) (A) (A) (A) (A)
                 (A) (A) (A) (A) (A) (A) (A) (A) (A) (A) (A) (A)
                 (A) (A) (A) (A) (A) (A) (A) (A) (A) (A) (A) (A)
                 (A) (A) (A) (A) (A) (A) (A) (A) (A) (A) (A) (A)
                 (A) (A) (A) (A) (A) (A) (A) (A) (A) (A) (A) (A)
                 (A) (A) (A) (A) (A) (A) (A) (A) (A) (A) (A) (A)
                 (A) (A) (A) (A) (A) (A) (A) (A) (A) (A) (A) (A)
                 (A) (A) (A) (A) (A) (A) (A) (A) (A) (A) (A) (A)
                 (A) (A) (A) (A) (A) (A) (A) (A) (A) (A) (A) (A)
                 (A) (A) (A) (A) (A) (A) (A) (A) (A) (A) (A) (A)
                 (A) (A) (A) (A) (A) (A) (A) (A) (A) (A) (A) (A)
                 (A) (A) (A) (A) (A) (A) (A) (A) (A) (A) (A) (A)
                 (A) (A) (A) (A) (A) (A) (A) (A) (A) (A) (A) (A)
                 (A) (A) (A) (A) (A) (A) (A) (A) (A) (A) (A) (A)
                 (A) (A) (A) (A) (A) (A) (A) (A) (A) (A) (A) (A)
                 (A) (A) (A) (A) (A) (A) (A) (A) (A) (A) (A) (A)
                 (A) (A) (A) (A) (A) (A) (A) (A) (A) (A) (A) (A)
                 (A) (A) (A) (A) (A) (A) (A) (A) (A) (A) (A) (A)
                 (A) (A) (A) (A) (A) (A) (A) (A) (A) (A) (A) (A)
                 (A) (A) (A) (A) (A) (A) (A) (A) (A) (A) (A) (A)
                 (A) (A) (A) (A) (A) (A) (A) (A) (A) (A) (A) (A)
                 (A) (A) (A) (A) (A) (A) (A) (A) (A) (A) (A) (A)
                 (A) (A) (A) (A) (A) (A) (A) (A) (A) (A) (A) (A)
                 (A) (A) (A) (A) (A) (A) (A) (A) (A) (A) (A) (A)
                 (A) (A) (A) (A) (A) (A) (A) (A) (A) (A) (A) (A)
                 (A) (A) (A) (A) (A) (A) (A) (A) (A) (A) (A) (A)
                 (A) (A) (A) (A) (A) (A) (A) (A) (A) (A) (A) (A)
                 (A) (A) (A) (A) (A) (A) (A) (A) (A) (A) (A) (A)
                 (A) (A) (A) (A) (A) (A) (A) (A) (A) (A) (A) (A)
                 (A) (A) (A) (A) (A) (A) (A) (A) (A) (A) (A) (A)
                 (A) (A) (A) (A) (A) (A) (A) (A) (A) (A) (A) (A)
                 (A) (A) (A) (A) (A) (A) (A) (A) (A) (A) (A) (A)
                 (A) (A) (A) (A) (A) (A) (A) (A) (A) (A) (A) (A)
                 (A) (A) (A) (A) (A) (A) (A) (A) (A) (A) (A) (A)
                 (A) (A) (A) (A) (A) (A) (A) (A) (A) (A) (A) (A)
                 (A) (A) (A) (A) (A) (A) (A) (A) (A) (A) (A) (A)
                 (A) (A) (A) (A) (A) (A) (A) (A) (A) (A) (A) (A)
                 (A) (A) (A) (A) (A) (A) (A) (A) (A) (A) (A) (A)
                 (A) (A) (A) (A) (A) (A) (A) (A) (A) (A) (A) (A)
                 (A) (A) (A) (A) (A) (A) (A) (A) (A) (A) (A) (A)
                 (A) (A) (A) (A) (A) (A) (A) (A) (A) (A) (A) (A)
                 (A) (A) (A) (A) (A) (A) (A) (A) (A) (A) (A) (A)
                 (A) (A) (A) (A) (A) (A) (A) (A) (A) (A) (A) (A)
                 (A) (A) (A) (A) (A) (A) (A) (A) (A) (A) (A) (A)
                 (A) (A) (A) (A) (A) (A) (A) (A) (A) (A) (A) (A)
                 (A) (A) (A) (A) (A) (A) (A) (A) (A) (A) (A) (A)
                 (A) (A) (A) (A) (A) (A) (A) (A) (A) (A) (A) (A)
                 (A) (A) (A) (A) (A) (A) (A) (A) (A) (A) (A) (A)
                 (A) (A) (A) (A) (A) (A) (A) (A) (A) (A) (A) (A)
                 (A) (A) (A) (A) (A) (A) (A) (A) (A) (A) (A) (A)
                 (A) (A) (A) (A) (A) (A) (A) (A) (A) (A) (A) (A)
                 (A) (A) (A) (A) (A) (A) (A) (A) (A) (A) (A) (A)
                 (A) (A) (A) (A) (A) (A) (A) (A) (A) (A) (A) (A)
                 (A) (A) (A) (A) (A) (A) (A) (A) (A) (A) (A) (A)
                 (A) (A) (A) (A) (A) (A) (A) (A) (A) (A) (A) (A)
                 (A) (A) (A) (A) (A) (A) (A) (A) (A) (A) (A) (A)
                 (A) (A) (A) (A) (A) (A) (A) (A) (A) (A) (A) (A)
                 (A) (A) (A) (A) (A) (A) (A) (A) (A) (A) (A) (A)
                 (A) (A) (A) (A) (A) (A) (A) (A) (A) (A) (A) (A)
                 (A) (A) (A) (A) (A) (A) (A) (A) (A) (A) (A) (A)
                 (A) (A) (A) (A) (A) (A) (A) (A) (A) (A) (A) (A)
                 (A) (A) (A) (A) (A) (A) (A) (A) (A) (A) (A) (A)
                 (A) (A) (A) (A) (A) (A) (A) (A) (A) (A) (A) (A)
                 (A) (A) (A) (A) (A) (A) (A) (A) (A) (A) (A) (A)
                 (A) (A) (A) (A) (A) (A) (A) (A) (A) (A) (A) (A)
                 (A) (A) (A) (A) (A) (A) (A) (A) (A) (A) (A) (A)
                 (A) (A) (A) (A) (A) (A) (A) (A) (A) (A) (A) (A)
                 (A) (A) (A) (A) (A) (A) (A) (A) (A) (A) (A) (A)
                 (A) (A) (A) (A) (A) (A) (A) (A) (A) (A) (A) (A)
                 (A) (A) (A) (A) (A) (A) (A) (A) (A) (A) (A) (A)
                 (A) (A) (A) (A) (A) (A) (A) (A) (A) (A) (A) (A)
                 (A) (A) (A) (A) (A) (A) (A) (A) (A) (A) (A) (A)
                 (A) (A) (A) (A) (A) (A) (A) (A) (A) (A) (A) (A)
                 (A) (A) (A) (A) (A) (A) (A) (A) (A) (A) (A) (A)
                 (A) (A) (A) (A) (A) (A) (A) (A) (A) (A) (A) (A)
                 (A) (A) (A) (A) (A) (A) (A) (A) (A) (A) (A) (A)
                 (A) (A) (A) (A) (A) (A) (A) (A) (A) (A) (A) (A)
                 (A) (A) (A) (A) (A) (A) (A) (A) (A) (A) (A) (A)
                 (A) (A) (A) (A) (A) (A) (A) (A) (A) (A) (A) (A)
                 (A) (A) (A) (A) (A) (A) (A) (A) (A) (A) (A) (A)
                 (A) (A) (A) (A) (A) (A) (A) (A) (A) (A) (A) (A)
                 (A) (A) (A) (A) (A) (A) (A) (A) (A) (A) (A) (A)
                 (A) (A) (A) (A) (A) (A) (A) (A) (A) (A) (A) (A)
                 (A) (A) (A) (A) (A) (A) (A) (A) (A) (A) (A) (A)
                 (A) (A) (A) (A) (A) (A) (A) (A) (A) (A) (A) (A)
                 (A) (A) (A) (A) (A) (A) (A) (A) (A) (A) (A) (A)
                 (A) (A) (A) (A) (A) (A) (A) (A) (A) (A) (A) (A)
                 (A) (A) (A) (A) (A) (A) (A) (A) (A) (A) (A) (A)
                 (A) (A) (A) (A) (A) (A) (A) (A) (A) (A) (A) (A)
                 (A) (A) (A) (A) (A) (A) (A) (A) (A) (A) (A) (A)
                 (A) (A) (A) (A) (A) (A) (A) (A) (A) (A) (A) (A)
                 (A) (A) (A) (A) (A) (A) (A) (A) (A) (A) (A) (A)
                 (A) (A) (A) (A) (A) (A) (A) (A) (A) (A) (A) (A)
                 (A) (A) (A) (A) (A) (A) (A) (A) (A) (A) (A) (A)
                 (A) (A) (A) (A) (A) (A) (A) (A) (A) (A) (A) (A)
                 (A) (A) (A) (A) (A) (A) (A) (A) (A) (A) (A) (A)
                 (A) (A) (A) (A) (A) (A) (A) (A) (A) (A) (A) (A)
                 (A) (A) (A) (A) (A) (A) (A) (A) (A) (A) (A) (A)
                 (A) (A) (A) (A) (A) (A) (A) (A) (A) (A) (A) (A)
                 (A) (A) (A) (A) (A) (A) (A) (A) (A) (A) (A) (A)
                 (A) (A) (A) (A) (A) (A) (A) (A) (A) (A) (A) (A)
                 (A) (A) (A) (A) (A) (A) (A) (A) (A) (A) (A) (A)
                 (A) (A) (A) (A) (A) (A) (A) (A) (A) (A) (A) (A)
                 (A) (A) (A) (A) (A) (A) (A) (A) (A) (A) (A) (A)
                 (A) (A) (A) (A) (A) (A) (A) (A) (A) (A) (A) (A)
                 (A) (A) (A) (A) (A) (A) (A) (A) (A) (A) (A) (A)
                 (A) (A) (A) (A) (A) (A) (A) (A) (A) (A) (A) (A)
                 (A) (A) (A) (A) (A) (A) (A) (A) (A) (A) (A) (A)
                 (A) (A) (A) (A) (A) (A) (A) (A) (A) (A) (A) (A)
                 (A) (A) (A) (A) (A) (A) (A) (A) (A) (A) (A) (A)
                 (A) (A) (A) (A) (A) (A) (A) (A) (A) (A) (A) (A)
                 (A) (A) (A) (A) (A) (A) (A) (A) (A) (A) (A) (A)
                 (A) (A) (A) (A) (A) (A) (A) (A) (A) (A) (A) (A)
                 (A) (A) (A) (A) (A) (A) (A) (A) (A) (A) (A) (A)
                 (A) (A) (A) (A) (A) (A) (A) (A)
 The electronic state is 6-A.
 Alpha  occ. eigenvalues -- -256.49537 -30.32286 -26.13972 -26.13910 -26.13866
 Alpha  occ. eigenvalues --  -19.26324 -19.26173 -19.25590 -19.19288 -19.18905
 Alpha  occ. eigenvalues --  -14.47782 -14.43219 -14.41590 -14.40643 -14.39964
 Alpha  occ. eigenvalues --  -14.39659 -10.36170 -10.36078 -10.31214 -10.28521
 Alpha  occ. eigenvalues --  -10.28315 -10.28002 -10.27781 -10.27659 -10.27637
 Alpha  occ. eigenvalues --  -10.27463 -10.27369 -10.27187 -10.26783 -10.26116
 Alpha  occ. eigenvalues --  -10.26113 -10.26091 -10.25596 -10.25562 -10.25428
 Alpha  occ. eigenvalues --  -10.25338 -10.25267 -10.25261 -10.25224 -10.25221
 Alpha  occ. eigenvalues --  -10.25203 -10.25021 -10.24968 -10.24853 -10.24468
 Alpha  occ. eigenvalues --  -10.24124 -10.23832 -10.23792 -10.23659 -10.23147
 Alpha  occ. eigenvalues --  -10.23120 -10.23104 -10.22840  -3.74997  -2.51241
 Alpha  occ. eigenvalues --   -2.51067  -2.50894  -1.18728  -1.18404  -1.13474
 Alpha  occ. eigenvalues --   -1.11147  -1.05108  -1.05063  -1.04410  -1.04131
 Alpha  occ. eigenvalues --   -1.03354  -1.02858  -0.97634  -0.87924  -0.86842
 Alpha  occ. eigenvalues --   -0.86069  -0.85882  -0.85579  -0.85194  -0.84706
 Alpha  occ. eigenvalues --   -0.82289  -0.81947  -0.81113  -0.80044  -0.78897
 Alpha  occ. eigenvalues --   -0.78645  -0.76863  -0.74893  -0.74774  -0.74369
 Alpha  occ. eigenvalues --   -0.72950  -0.71303  -0.70734  -0.70208  -0.69818
 Alpha  occ. eigenvalues --   -0.69775  -0.67958  -0.67675  -0.67413  -0.66357
 Alpha  occ. eigenvalues --   -0.65458  -0.64231  -0.63199  -0.62599  -0.62445
 Alpha  occ. eigenvalues --   -0.60132  -0.58976  -0.58511  -0.57741  -0.56272
 Alpha  occ. eigenvalues --   -0.56057  -0.55710  -0.55683  -0.54708  -0.54342
 Alpha  occ. eigenvalues --   -0.53781  -0.53259  -0.53093  -0.52524  -0.52385
 Alpha  occ. eigenvalues --   -0.51865  -0.51693  -0.51051  -0.50731  -0.50577
 Alpha  occ. eigenvalues --   -0.50420  -0.49885  -0.49615  -0.49321  -0.49111
 Alpha  occ. eigenvalues --   -0.48990  -0.47949  -0.47587  -0.47549  -0.47301
 Alpha  occ. eigenvalues --   -0.47233  -0.47158  -0.46966  -0.46635  -0.46249
 Alpha  occ. eigenvalues --   -0.46058  -0.45649  -0.45341  -0.44629  -0.44322
 Alpha  occ. eigenvalues --   -0.44231  -0.43957  -0.43779  -0.43640  -0.43485
 Alpha  occ. eigenvalues --   -0.43099  -0.43066  -0.42491  -0.42281  -0.41742
 Alpha  occ. eigenvalues --   -0.41518  -0.41320  -0.41174  -0.40835  -0.40399
 Alpha  occ. eigenvalues --   -0.40199  -0.39952  -0.39424  -0.39264  -0.39162
 Alpha  occ. eigenvalues --   -0.38560  -0.38458  -0.37697  -0.37104  -0.36772
 Alpha  occ. eigenvalues --   -0.36474  -0.36165  -0.35775  -0.35178  -0.34603
 Alpha  occ. eigenvalues --   -0.34095  -0.33764  -0.33232  -0.31412  -0.31136
 Alpha  occ. eigenvalues --   -0.30749  -0.29638  -0.29265  -0.28266  -0.27753
 Alpha  occ. eigenvalues --   -0.26875  -0.26600  -0.25189  -0.24076  -0.22853
 Alpha  occ. eigenvalues --   -0.22088
 Alpha virt. eigenvalues --   -0.11875  -0.11694  -0.07911  -0.05437  -0.02347
 Alpha virt. eigenvalues --   -0.01846  -0.01083  -0.00845   0.00667   0.01861
 Alpha virt. eigenvalues --    0.02135   0.02672   0.03264   0.03614   0.04052
 Alpha virt. eigenvalues --    0.04299   0.04401   0.05071   0.05294   0.05502
 Alpha virt. eigenvalues --    0.05710   0.06626   0.06807   0.07130   0.07251
 Alpha virt. eigenvalues --    0.07495   0.07646   0.07773   0.08212   0.08792
 Alpha virt. eigenvalues --    0.09092   0.09282   0.09445   0.09770   0.10040
 Alpha virt. eigenvalues --    0.10267   0.10721   0.10905   0.11156   0.11367
 Alpha virt. eigenvalues --    0.11543   0.11762   0.12124   0.12217   0.12444
 Alpha virt. eigenvalues --    0.12742   0.12860   0.13272   0.13483   0.13562
 Alpha virt. eigenvalues --    0.13831   0.14038   0.14243   0.14379   0.14701
 Alpha virt. eigenvalues --    0.14803   0.15022   0.15267   0.15443   0.15646
 Alpha virt. eigenvalues --    0.16302   0.16430   0.16653   0.16837   0.17092
 Alpha virt. eigenvalues --    0.17280   0.17526   0.17660   0.17919   0.18135
 Alpha virt. eigenvalues --    0.18416   0.18483   0.18761   0.19310   0.19383
 Alpha virt. eigenvalues --    0.19691   0.19912   0.20089   0.20231   0.20407
 Alpha virt. eigenvalues --    0.20514   0.20750   0.20793   0.21035   0.21155
 Alpha virt. eigenvalues --    0.21405   0.21596   0.22026   0.22351   0.22498
 Alpha virt. eigenvalues --    0.22578   0.22756   0.23003   0.23285   0.23526
 Alpha virt. eigenvalues --    0.23969   0.24232   0.24324   0.24704   0.24865
 Alpha virt. eigenvalues --    0.25024   0.25092   0.25270   0.25582   0.25886
 Alpha virt. eigenvalues --    0.26050   0.26345   0.26730   0.26952   0.27159
 Alpha virt. eigenvalues --    0.27269   0.27542   0.27660   0.28193   0.28322
 Alpha virt. eigenvalues --    0.28470   0.28578   0.28816   0.29065   0.29150
 Alpha virt. eigenvalues --    0.29743   0.29794   0.30206   0.30277   0.30480
 Alpha virt. eigenvalues --    0.30772   0.31036   0.31271   0.31466   0.31824
 Alpha virt. eigenvalues --    0.32369   0.32469   0.32565   0.32729   0.33161
 Alpha virt. eigenvalues --    0.33542   0.33698   0.33997   0.34419   0.34636
 Alpha virt. eigenvalues --    0.34859   0.35288   0.35545   0.35719   0.35995
 Alpha virt. eigenvalues --    0.36216   0.36427   0.36482   0.36721   0.36940
 Alpha virt. eigenvalues --    0.37091   0.37417   0.37543   0.37733   0.37926
 Alpha virt. eigenvalues --    0.38052   0.38267   0.38631   0.38743   0.38894
 Alpha virt. eigenvalues --    0.39197   0.39507   0.39819   0.39856   0.40004
 Alpha virt. eigenvalues --    0.40465   0.40541   0.40760   0.40847   0.41101
 Alpha virt. eigenvalues --    0.41137   0.41536   0.41699   0.42036   0.42248
 Alpha virt. eigenvalues --    0.42487   0.42887   0.43012   0.43156   0.43519
 Alpha virt. eigenvalues --    0.43570   0.43676   0.43728   0.43949   0.44021
 Alpha virt. eigenvalues --    0.44448   0.44636   0.44929   0.45041   0.45299
 Alpha virt. eigenvalues --    0.45439   0.45853   0.45919   0.46049   0.46269
 Alpha virt. eigenvalues --    0.46591   0.46688   0.46916   0.47301   0.47332
 Alpha virt. eigenvalues --    0.47523   0.47712   0.47924   0.47984   0.48272
 Alpha virt. eigenvalues --    0.48440   0.48715   0.48795   0.49041   0.49150
 Alpha virt. eigenvalues --    0.49439   0.49702   0.49757   0.49876   0.50290
 Alpha virt. eigenvalues --    0.50467   0.50638   0.50723   0.50902   0.51020
 Alpha virt. eigenvalues --    0.51207   0.51294   0.51525   0.51610   0.51914
 Alpha virt. eigenvalues --    0.52043   0.52404   0.52622   0.52884   0.53037
 Alpha virt. eigenvalues --    0.53172   0.53305   0.53854   0.54085   0.54315
 Alpha virt. eigenvalues --    0.54442   0.54785   0.54908   0.55087   0.55365
 Alpha virt. eigenvalues --    0.55516   0.56064   0.56552   0.56740   0.56873
 Alpha virt. eigenvalues --    0.57116   0.57314   0.57458   0.57780   0.58201
 Alpha virt. eigenvalues --    0.58205   0.58623   0.58881   0.59318   0.59507
 Alpha virt. eigenvalues --    0.59634   0.59874   0.60119   0.60311   0.60660
 Alpha virt. eigenvalues --    0.60857   0.60999   0.61522   0.61715   0.61797
 Alpha virt. eigenvalues --    0.62092   0.62295   0.62414   0.62927   0.63123
 Alpha virt. eigenvalues --    0.63372   0.63617   0.64177   0.64309   0.64428
 Alpha virt. eigenvalues --    0.64572   0.64783   0.65250   0.65492   0.65823
 Alpha virt. eigenvalues --    0.65968   0.66177   0.66308   0.66895   0.67066
 Alpha virt. eigenvalues --    0.67416   0.67790   0.68049   0.68339   0.68427
 Alpha virt. eigenvalues --    0.68716   0.68977   0.69159   0.69395   0.69694
 Alpha virt. eigenvalues --    0.69833   0.70055   0.70499   0.70922   0.71173
 Alpha virt. eigenvalues --    0.71852   0.71931   0.72175   0.72371   0.72677
 Alpha virt. eigenvalues --    0.72766   0.73151   0.73596   0.73951   0.74286
 Alpha virt. eigenvalues --    0.74333   0.74643   0.75013   0.75288   0.75756
 Alpha virt. eigenvalues --    0.75820   0.76119   0.76247   0.76364   0.76643
 Alpha virt. eigenvalues --    0.77120   0.77328   0.77700   0.78078   0.78494
 Alpha virt. eigenvalues --    0.79074   0.79520   0.79742   0.80070   0.80248
 Alpha virt. eigenvalues --    0.80413   0.80917   0.80941   0.81220   0.81580
 Alpha virt. eigenvalues --    0.81796   0.81893   0.82481   0.82795   0.83221
 Alpha virt. eigenvalues --    0.83800   0.83971   0.84547   0.84619   0.84863
 Alpha virt. eigenvalues --    0.85325   0.85577   0.85882   0.86220   0.86496
 Alpha virt. eigenvalues --    0.86823   0.87538   0.87732   0.87957   0.88680
 Alpha virt. eigenvalues --    0.88927   0.89498   0.89864   0.90041   0.90346
 Alpha virt. eigenvalues --    0.90846   0.91481   0.91608   0.91804   0.91992
 Alpha virt. eigenvalues --    0.92339   0.92535   0.92968   0.93303   0.93732
 Alpha virt. eigenvalues --    0.94111   0.94207   0.94866   0.94997   0.95187
 Alpha virt. eigenvalues --    0.95594   0.95795   0.95956   0.96606   0.96902
 Alpha virt. eigenvalues --    0.97264   0.97523   0.97855   0.97966   0.98209
 Alpha virt. eigenvalues --    0.98637   0.99303   0.99405   0.99697   1.00027
 Alpha virt. eigenvalues --    1.00093   1.00144   1.00643   1.01046   1.01128
 Alpha virt. eigenvalues --    1.01333   1.01835   1.02212   1.02621   1.02741
 Alpha virt. eigenvalues --    1.02941   1.03438   1.03810   1.04019   1.04272
 Alpha virt. eigenvalues --    1.04623   1.04934   1.05010   1.05470   1.05977
 Alpha virt. eigenvalues --    1.06357   1.06532   1.06843   1.07120   1.07667
 Alpha virt. eigenvalues --    1.07771   1.07988   1.08305   1.08410   1.08815
 Alpha virt. eigenvalues --    1.09306   1.09598   1.09900   1.10318   1.10747
 Alpha virt. eigenvalues --    1.11074   1.11604   1.11885   1.12182   1.12441
 Alpha virt. eigenvalues --    1.12888   1.12991   1.13408   1.13983   1.14276
 Alpha virt. eigenvalues --    1.14545   1.15026   1.15234   1.15625   1.16051
 Alpha virt. eigenvalues --    1.16696   1.16980   1.17520   1.17854   1.18179
 Alpha virt. eigenvalues --    1.18606   1.19221   1.19675   1.19789   1.20658
 Alpha virt. eigenvalues --    1.21059   1.21241   1.21581   1.21816   1.22210
 Alpha virt. eigenvalues --    1.22715   1.23023   1.23158   1.23620   1.23976
 Alpha virt. eigenvalues --    1.24451   1.24530   1.25046   1.25371   1.26076
 Alpha virt. eigenvalues --    1.26507   1.26607   1.26971   1.27511   1.28027
 Alpha virt. eigenvalues --    1.28234   1.28573   1.29188   1.29431   1.29944
 Alpha virt. eigenvalues --    1.30014   1.30869   1.31030   1.31425   1.31958
 Alpha virt. eigenvalues --    1.32217   1.32648   1.33155   1.33500   1.34057
 Alpha virt. eigenvalues --    1.34511   1.34639   1.35043   1.35417   1.35748
 Alpha virt. eigenvalues --    1.36424   1.36916   1.37282   1.37621   1.38373
 Alpha virt. eigenvalues --    1.38442   1.39613   1.39675   1.40207   1.40507
 Alpha virt. eigenvalues --    1.40785   1.41175   1.41424   1.42136   1.42474
 Alpha virt. eigenvalues --    1.42754   1.43142   1.43777   1.43971   1.44406
 Alpha virt. eigenvalues --    1.44656   1.44745   1.45120   1.45493   1.45835
 Alpha virt. eigenvalues --    1.46218   1.46349   1.46540   1.46729   1.47049
 Alpha virt. eigenvalues --    1.47479   1.47567   1.47869   1.48290   1.48747
 Alpha virt. eigenvalues --    1.48904   1.49658   1.50016   1.50246   1.50295
 Alpha virt. eigenvalues --    1.50532   1.50813   1.51541   1.51696   1.51948
 Alpha virt. eigenvalues --    1.52218   1.52599   1.52968   1.53403   1.53728
 Alpha virt. eigenvalues --    1.53906   1.54258   1.54604   1.54922   1.55092
 Alpha virt. eigenvalues --    1.55391   1.56106   1.56373   1.56452   1.56770
 Alpha virt. eigenvalues --    1.57216   1.57324   1.57522   1.57961   1.58248
 Alpha virt. eigenvalues --    1.58348   1.58565   1.58938   1.59171   1.59288
 Alpha virt. eigenvalues --    1.59698   1.59816   1.60077   1.60340   1.60533
 Alpha virt. eigenvalues --    1.60794   1.60980   1.61164   1.61513   1.61915
 Alpha virt. eigenvalues --    1.62166   1.62596   1.62650   1.62922   1.63312
 Alpha virt. eigenvalues --    1.63649   1.63823   1.64389   1.64561   1.64876
 Alpha virt. eigenvalues --    1.65533   1.65687   1.66184   1.66194   1.66907
 Alpha virt. eigenvalues --    1.67190   1.67547   1.67696   1.68344   1.68499
 Alpha virt. eigenvalues --    1.68760   1.69083   1.69577   1.69689   1.70193
 Alpha virt. eigenvalues --    1.70371   1.70874   1.71229   1.71888   1.72059
 Alpha virt. eigenvalues --    1.72606   1.72767   1.73111   1.73417   1.73648
 Alpha virt. eigenvalues --    1.73934   1.74212   1.75382   1.75790   1.76300
 Alpha virt. eigenvalues --    1.76368   1.76976   1.77293   1.77677   1.77909
 Alpha virt. eigenvalues --    1.78732   1.78983   1.79432   1.79690   1.80005
 Alpha virt. eigenvalues --    1.80222   1.81028   1.81303   1.81357   1.81744
 Alpha virt. eigenvalues --    1.82115   1.82220   1.82905   1.83249   1.83630
 Alpha virt. eigenvalues --    1.84047   1.84687   1.84746   1.85507   1.85802
 Alpha virt. eigenvalues --    1.86004   1.86462   1.86918   1.87544   1.87871
 Alpha virt. eigenvalues --    1.88239   1.88402   1.88561   1.89109   1.89239
 Alpha virt. eigenvalues --    1.89341   1.89756   1.90171   1.90688   1.91169
 Alpha virt. eigenvalues --    1.91597   1.91951   1.92300   1.92710   1.92959
 Alpha virt. eigenvalues --    1.93156   1.93229   1.93954   1.94254   1.94829
 Alpha virt. eigenvalues --    1.95080   1.95242   1.95561   1.96090   1.96172
 Alpha virt. eigenvalues --    1.96639   1.96998   1.97441   1.97868   1.98165
 Alpha virt. eigenvalues --    1.98305   1.98697   1.99043   1.99808   1.99929
 Alpha virt. eigenvalues --    2.00462   2.01238   2.01430   2.01977   2.01988
 Alpha virt. eigenvalues --    2.02299   2.02619   2.03148   2.03832   2.04115
 Alpha virt. eigenvalues --    2.04422   2.04766   2.05305   2.05351   2.05595
 Alpha virt. eigenvalues --    2.06203   2.06340   2.06864   2.07277   2.07702
 Alpha virt. eigenvalues --    2.07934   2.08400   2.08904   2.09279   2.10037
 Alpha virt. eigenvalues --    2.10797   2.11285   2.11474   2.12476   2.12813
 Alpha virt. eigenvalues --    2.12911   2.13511   2.13755   2.13996   2.14584
 Alpha virt. eigenvalues --    2.14842   2.15201   2.15384   2.15916   2.16275
 Alpha virt. eigenvalues --    2.16730   2.17219   2.17467   2.17539   2.18125
 Alpha virt. eigenvalues --    2.18568   2.19098   2.19337   2.20084   2.20501
 Alpha virt. eigenvalues --    2.20773   2.20932   2.21486   2.21824   2.22662
 Alpha virt. eigenvalues --    2.23107   2.23540   2.23645   2.24450   2.24816
 Alpha virt. eigenvalues --    2.25560   2.25876   2.26079   2.26661   2.27303
 Alpha virt. eigenvalues --    2.27328   2.28017   2.28443   2.29034   2.29583
 Alpha virt. eigenvalues --    2.30133   2.30495   2.30610   2.30970   2.31427
 Alpha virt. eigenvalues --    2.31814   2.32219   2.32675   2.32856   2.33307
 Alpha virt. eigenvalues --    2.33481   2.34517   2.34719   2.35079   2.35447
 Alpha virt. eigenvalues --    2.35848   2.36419   2.36589   2.36895   2.37030
 Alpha virt. eigenvalues --    2.37879   2.37990   2.38441   2.39143   2.39592
 Alpha virt. eigenvalues --    2.39942   2.40458   2.40597   2.40956   2.41464
 Alpha virt. eigenvalues --    2.41748   2.42127   2.42367   2.42662   2.42849
 Alpha virt. eigenvalues --    2.43356   2.43853   2.44417   2.44686   2.44856
 Alpha virt. eigenvalues --    2.45773   2.46238   2.46398   2.47123   2.47474
 Alpha virt. eigenvalues --    2.47838   2.48926   2.49101   2.49310   2.49901
 Alpha virt. eigenvalues --    2.50269   2.50448   2.50816   2.51172   2.51341
 Alpha virt. eigenvalues --    2.51548   2.51760   2.52955   2.53320   2.53600
 Alpha virt. eigenvalues --    2.53765   2.54074   2.54558   2.54843   2.54954
 Alpha virt. eigenvalues --    2.55114   2.55632   2.56341   2.56710   2.57133
 Alpha virt. eigenvalues --    2.57334   2.57875   2.58199   2.58708   2.58752
 Alpha virt. eigenvalues --    2.58986   2.59359   2.59606   2.60066   2.60437
 Alpha virt. eigenvalues --    2.60697   2.60877   2.61556   2.61809   2.62339
 Alpha virt. eigenvalues --    2.62435   2.62658   2.63262   2.63593   2.64107
 Alpha virt. eigenvalues --    2.64220   2.64696   2.64979   2.65300   2.65335
 Alpha virt. eigenvalues --    2.65772   2.65911   2.66127   2.66536   2.66844
 Alpha virt. eigenvalues --    2.67156   2.67220   2.68004   2.68603   2.68808
 Alpha virt. eigenvalues --    2.68909   2.69606   2.69727   2.70180   2.70715
 Alpha virt. eigenvalues --    2.71076   2.71406   2.71619   2.72234   2.72382
 Alpha virt. eigenvalues --    2.72729   2.72954   2.73221   2.73590   2.74309
 Alpha virt. eigenvalues --    2.74589   2.74878   2.75237   2.75543   2.75929
 Alpha virt. eigenvalues --    2.76703   2.76784   2.77283   2.77767   2.77985
 Alpha virt. eigenvalues --    2.78239   2.78776   2.79238   2.79589   2.79978
 Alpha virt. eigenvalues --    2.80186   2.80643   2.80881   2.80986   2.81520
 Alpha virt. eigenvalues --    2.82062   2.82170   2.82576   2.82904   2.83306
 Alpha virt. eigenvalues --    2.83568   2.83925   2.84329   2.84554   2.84885
 Alpha virt. eigenvalues --    2.85425   2.85842   2.86056   2.86305   2.86952
 Alpha virt. eigenvalues --    2.87169   2.87340   2.87785   2.88158   2.88586
 Alpha virt. eigenvalues --    2.88875   2.88982   2.89454   2.89810   2.90144
 Alpha virt. eigenvalues --    2.90521   2.90807   2.91298   2.91644   2.91822
 Alpha virt. eigenvalues --    2.92144   2.92525   2.92760   2.92813   2.93183
 Alpha virt. eigenvalues --    2.93404   2.93885   2.94112   2.94347   2.94821
 Alpha virt. eigenvalues --    2.94945   2.95350   2.95948   2.96350   2.96451
 Alpha virt. eigenvalues --    2.96849   2.96954   2.97384   2.97853   2.98003
 Alpha virt. eigenvalues --    2.98205   2.98653   2.99005   2.99362   2.99583
 Alpha virt. eigenvalues --    3.00516   3.00810   3.00992   3.01677   3.01926
 Alpha virt. eigenvalues --    3.02355   3.02571   3.02823   3.03123   3.03500
 Alpha virt. eigenvalues --    3.03617   3.04058   3.04471   3.04672   3.05121
 Alpha virt. eigenvalues --    3.05368   3.05544   3.05901   3.06410   3.06639
 Alpha virt. eigenvalues --    3.06889   3.07392   3.07534   3.07752   3.08032
 Alpha virt. eigenvalues --    3.08249   3.08323   3.08921   3.09393   3.09394
 Alpha virt. eigenvalues --    3.09731   3.10271   3.10363   3.10876   3.11062
 Alpha virt. eigenvalues --    3.11420   3.11870   3.12187   3.12229   3.12494
 Alpha virt. eigenvalues --    3.12919   3.13079   3.13450   3.13856   3.14230
 Alpha virt. eigenvalues --    3.14427   3.14645   3.15224   3.15461   3.15602
 Alpha virt. eigenvalues --    3.15766   3.16000   3.16601   3.16718   3.17272
 Alpha virt. eigenvalues --    3.17400   3.17752   3.18042   3.18649   3.18846
 Alpha virt. eigenvalues --    3.18887   3.19139   3.19623   3.20148   3.20318
 Alpha virt. eigenvalues --    3.20766   3.21006   3.21321   3.21733   3.21946
 Alpha virt. eigenvalues --    3.22252   3.22444   3.22881   3.23304   3.23351
 Alpha virt. eigenvalues --    3.23442   3.24405   3.24497   3.24805   3.24991
 Alpha virt. eigenvalues --    3.25140   3.25568   3.25770   3.26087   3.26599
 Alpha virt. eigenvalues --    3.26742   3.26797   3.26936   3.27392   3.27545
 Alpha virt. eigenvalues --    3.27958   3.28511   3.28681   3.28921   3.29485
 Alpha virt. eigenvalues --    3.29674   3.29960   3.30212   3.30359   3.30531
 Alpha virt. eigenvalues --    3.30834   3.31083   3.31164   3.31777   3.32190
 Alpha virt. eigenvalues --    3.32255   3.32486   3.32646   3.32951   3.33076
 Alpha virt. eigenvalues --    3.33507   3.33640   3.34181   3.34464   3.34474
 Alpha virt. eigenvalues --    3.34630   3.35032   3.35324   3.35465   3.35830
 Alpha virt. eigenvalues --    3.36001   3.36085   3.36176   3.36392   3.36633
 Alpha virt. eigenvalues --    3.37123   3.37308   3.37408   3.37607   3.38115
 Alpha virt. eigenvalues --    3.38375   3.38818   3.39408   3.39529   3.39778
 Alpha virt. eigenvalues --    3.40073   3.40179   3.40526   3.41141   3.41471
 Alpha virt. eigenvalues --    3.41851   3.42494   3.42799   3.43219   3.43378
 Alpha virt. eigenvalues --    3.43796   3.44256   3.44450   3.44695   3.44968
 Alpha virt. eigenvalues --    3.45257   3.45851   3.46242   3.46699   3.46949
 Alpha virt. eigenvalues --    3.47223   3.47805   3.48145   3.48373   3.49185
 Alpha virt. eigenvalues --    3.49344   3.49551   3.49869   3.50110   3.50480
 Alpha virt. eigenvalues --    3.50687   3.50967   3.51156   3.51746   3.52342
 Alpha virt. eigenvalues --    3.52683   3.52876   3.53576   3.54142   3.54246
 Alpha virt. eigenvalues --    3.54676   3.55060   3.55391   3.56047   3.56289
 Alpha virt. eigenvalues --    3.56322   3.56840   3.57417   3.57620   3.57735
 Alpha virt. eigenvalues --    3.58193   3.58951   3.59101   3.59484   3.59815
 Alpha virt. eigenvalues --    3.60128   3.60903   3.61489   3.61727   3.61872
 Alpha virt. eigenvalues --    3.62165   3.62736   3.62855   3.63297   3.63605
 Alpha virt. eigenvalues --    3.64000   3.64335   3.64875   3.65105   3.65631
 Alpha virt. eigenvalues --    3.65858   3.66397   3.66636   3.66779   3.67345
 Alpha virt. eigenvalues --    3.67639   3.68091   3.68814   3.68932   3.69422
 Alpha virt. eigenvalues --    3.69630   3.70041   3.70453   3.70917   3.71224
 Alpha virt. eigenvalues --    3.71719   3.71785   3.72064   3.72827   3.72845
 Alpha virt. eigenvalues --    3.73205   3.73427   3.74074   3.74539   3.75208
 Alpha virt. eigenvalues --    3.75736   3.75924   3.76506   3.76656   3.77274
 Alpha virt. eigenvalues --    3.78083   3.78280   3.78418   3.79152   3.79552
 Alpha virt. eigenvalues --    3.79826   3.80343   3.80776   3.81595   3.82097
 Alpha virt. eigenvalues --    3.82545   3.83193   3.83249   3.83652   3.84055
 Alpha virt. eigenvalues --    3.84610   3.85185   3.85763   3.86326   3.87250
 Alpha virt. eigenvalues --    3.87475   3.88121   3.88892   3.89203   3.89880
 Alpha virt. eigenvalues --    3.90811   3.90877   3.91521   3.91756   3.92505
 Alpha virt. eigenvalues --    3.92925   3.93427   3.93912   3.94242   3.94588
 Alpha virt. eigenvalues --    3.95130   3.95456   3.96011   3.96340   3.97064
 Alpha virt. eigenvalues --    3.97672   3.98446   3.99121   3.99283   3.99781
 Alpha virt. eigenvalues --    4.00215   4.01161   4.01349   4.01792   4.02083
 Alpha virt. eigenvalues --    4.02857   4.03659   4.03854   4.04287   4.04771
 Alpha virt. eigenvalues --    4.05569   4.05819   4.06450   4.06720   4.07238
 Alpha virt. eigenvalues --    4.07817   4.08190   4.08877   4.10185   4.10237
 Alpha virt. eigenvalues --    4.10302   4.10977   4.11530   4.12079   4.12383
 Alpha virt. eigenvalues --    4.13249   4.13755   4.13944   4.14096   4.14642
 Alpha virt. eigenvalues --    4.15441   4.16209   4.16756   4.17146   4.17550
 Alpha virt. eigenvalues --    4.18473   4.18859   4.19783   4.20149   4.20839
 Alpha virt. eigenvalues --    4.20988   4.21561   4.21765   4.22194   4.22570
 Alpha virt. eigenvalues --    4.23062   4.23736   4.24241   4.24537   4.25181
 Alpha virt. eigenvalues --    4.25543   4.25641   4.26261   4.26551   4.27274
 Alpha virt. eigenvalues --    4.27428   4.28420   4.29192   4.29967   4.30360
 Alpha virt. eigenvalues --    4.31007   4.31291   4.32430   4.32814   4.35294
 Alpha virt. eigenvalues --    4.35719   4.36495   4.36894   4.37032   4.38161
 Alpha virt. eigenvalues --    4.38766   4.39401   4.39655   4.39921   4.40781
 Alpha virt. eigenvalues --    4.41200   4.41928   4.42442   4.42649   4.43145
 Alpha virt. eigenvalues --    4.43740   4.43883   4.44362   4.45123   4.46226
 Alpha virt. eigenvalues --    4.46996   4.47796   4.48365   4.49373   4.50574
 Alpha virt. eigenvalues --    4.51350   4.51917   4.52206   4.53047   4.53256
 Alpha virt. eigenvalues --    4.54138   4.54653   4.55722   4.56060   4.56337
 Alpha virt. eigenvalues --    4.57303   4.58934   4.59857   4.60389   4.61399
 Alpha virt. eigenvalues --    4.62238   4.63216   4.63655   4.64528   4.64816
 Alpha virt. eigenvalues --    4.65099   4.66114   4.66633   4.66916   4.68175
 Alpha virt. eigenvalues --    4.68496   4.69301   4.70327   4.70547   4.71867
 Alpha virt. eigenvalues --    4.72624   4.73111   4.74204   4.74618   4.75096
 Alpha virt. eigenvalues --    4.75361   4.75935   4.76554   4.77215   4.78028
 Alpha virt. eigenvalues --    4.78797   4.78919   4.79861   4.80733   4.81148
 Alpha virt. eigenvalues --    4.81699   4.82098   4.82940   4.85191   4.85700
 Alpha virt. eigenvalues --    4.87105   4.87729   4.88265   4.89279   4.89639
 Alpha virt. eigenvalues --    4.90744   4.91565   4.92368   4.93095   4.93501
 Alpha virt. eigenvalues --    4.94127   4.95018   4.96288   4.96362   4.97022
 Alpha virt. eigenvalues --    4.98068   4.98798   4.99838   5.00977   5.02762
 Alpha virt. eigenvalues --    5.03346   5.03844   5.04089   5.05099   5.06256
 Alpha virt. eigenvalues --    5.07046   5.07360   5.08203   5.09089   5.09365
 Alpha virt. eigenvalues --    5.09985   5.10721   5.12690   5.13296   5.14762
 Alpha virt. eigenvalues --    5.15452   5.15481   5.16376   5.16832   5.17197
 Alpha virt. eigenvalues --    5.18495   5.18785   5.19021   5.19573   5.19772
 Alpha virt. eigenvalues --    5.20489   5.21302   5.22093   5.22551   5.22939
 Alpha virt. eigenvalues --    5.23623   5.23938   5.24358   5.24976   5.25427
 Alpha virt. eigenvalues --    5.26723   5.28689   5.29702   5.32366   5.32654
 Alpha virt. eigenvalues --    5.35120   5.35670   5.35883   5.37615   5.38487
 Alpha virt. eigenvalues --    5.39076   5.39807   5.40057   5.41126   5.41492
 Alpha virt. eigenvalues --    5.43065   5.44287   5.44705   5.45867   5.46676
 Alpha virt. eigenvalues --    5.47082   5.47779   5.49753   5.51069   5.51407
 Alpha virt. eigenvalues --    5.51904   5.52407   5.54196   5.55530   5.56487
 Alpha virt. eigenvalues --    5.56582   5.56903   5.58006   5.59922   5.60377
 Alpha virt. eigenvalues --    5.61787   5.62299   5.63119   5.64067   5.65926
 Alpha virt. eigenvalues --    5.66114   5.67126   5.68303   5.68621   5.69930
 Alpha virt. eigenvalues --    5.70630   5.72613   5.74387   5.77129   5.78093
 Alpha virt. eigenvalues --    5.78960   5.82222   5.83158   5.83704   5.85826
 Alpha virt. eigenvalues --    5.87292   5.89448   5.90266   5.93888   5.97734
 Alpha virt. eigenvalues --    5.98050   5.98964   6.01585   6.02551   6.04254
 Alpha virt. eigenvalues --    6.10239   6.10568   6.11689   6.12096   6.13516
 Alpha virt. eigenvalues --    6.14311   6.15951   6.20379   6.22408   6.23690
 Alpha virt. eigenvalues --    6.24220   6.24322   6.32507   6.33395   6.39132
 Alpha virt. eigenvalues --    6.39352   6.39384   6.41213   6.43071   6.43565
 Alpha virt. eigenvalues --    6.45766   6.46622   6.47037   6.48523   6.51089
 Alpha virt. eigenvalues --    6.51309   6.52614   6.56112   6.66221   6.66638
 Alpha virt. eigenvalues --    6.72372   6.77781   6.80613   6.84165   6.85120
 Alpha virt. eigenvalues --    6.95681   6.96843   7.02906   7.06425   7.09618
 Alpha virt. eigenvalues --    7.14125   7.14209   7.15875   7.18209   7.19846
 Alpha virt. eigenvalues --    7.27384   7.27638  22.34157  22.35108  22.50584
 Alpha virt. eigenvalues --   22.51232  22.51471  22.52846  22.61865  22.66494
 Alpha virt. eigenvalues --   22.68120  22.71441  22.73772  22.78838  22.80669
 Alpha virt. eigenvalues --   22.94452  22.95192  22.98518  22.99720  23.05382
 Alpha virt. eigenvalues --   23.06621  23.08634  23.09593  23.16464  23.17668
 Alpha virt. eigenvalues --   23.35396  23.37460  23.41901  23.43645  23.45703
 Alpha virt. eigenvalues --   23.53006  23.55631  23.57725  23.67200  23.72322
 Alpha virt. eigenvalues --   23.79934  23.92828  23.95139  24.05409  32.45745
 Alpha virt. eigenvalues --   32.70870  32.95931  33.00223  33.08912  33.14504
 Alpha virt. eigenvalues --   43.93520  43.96207  43.98554  43.99713  44.17081
  Beta  occ. eigenvalues -- -256.49389 -30.22435 -26.05671 -26.05629 -26.05603
  Beta  occ. eigenvalues --  -19.26324 -19.26173 -19.25340 -19.19287 -19.18905
  Beta  occ. eigenvalues --  -14.47769 -14.42934 -14.41295 -14.40335 -14.39640
  Beta  occ. eigenvalues --  -14.39328 -10.36170 -10.36078 -10.31183 -10.28501
  Beta  occ. eigenvalues --  -10.28316 -10.27982 -10.27766 -10.27638 -10.27631
  Beta  occ. eigenvalues --  -10.27451 -10.27358 -10.27171 -10.26780 -10.26068
  Beta  occ. eigenvalues --  -10.26047 -10.26038 -10.25572 -10.25561 -10.25455
  Beta  occ. eigenvalues --  -10.25343 -10.25271 -10.25237 -10.25213 -10.25209
  Beta  occ. eigenvalues --  -10.25174 -10.25060 -10.24984 -10.24822 -10.24420
  Beta  occ. eigenvalues --  -10.24122 -10.23830 -10.23791 -10.23657 -10.23145
  Beta  occ. eigenvalues --  -10.23119 -10.23105 -10.22839  -3.51573  -2.26170
  Beta  occ. eigenvalues --   -2.25843  -2.25721  -1.18727  -1.18403  -1.13292
  Beta  occ. eigenvalues --   -1.10572  -1.05062  -1.04765  -1.04410  -1.03771
  Beta  occ. eigenvalues --   -1.03001  -1.02484  -0.97315  -0.87861  -0.86659
  Beta  occ. eigenvalues --   -0.85935  -0.85774  -0.85431  -0.85091  -0.84587
  Beta  occ. eigenvalues --   -0.82181  -0.81843  -0.81002  -0.79963  -0.78847
  Beta  occ. eigenvalues --   -0.78577  -0.76779  -0.74833  -0.74683  -0.74226
  Beta  occ. eigenvalues --   -0.72843  -0.71219  -0.70643  -0.69903  -0.69761
  Beta  occ. eigenvalues --   -0.69712  -0.67890  -0.67599  -0.67082  -0.66189
  Beta  occ. eigenvalues --   -0.65257  -0.63302  -0.63073  -0.62483  -0.62115
  Beta  occ. eigenvalues --   -0.59970  -0.58805  -0.58101  -0.56808  -0.56110
  Beta  occ. eigenvalues --   -0.55571  -0.55417  -0.54407  -0.53782  -0.53457
  Beta  occ. eigenvalues --   -0.53064  -0.52492  -0.52406  -0.51614  -0.51377
  Beta  occ. eigenvalues --   -0.50786  -0.50641  -0.50425  -0.49780  -0.49292
  Beta  occ. eigenvalues --   -0.49024  -0.48695  -0.48432  -0.47861  -0.47660
  Beta  occ. eigenvalues --   -0.47339  -0.47218  -0.47066  -0.46832  -0.46687
  Beta  occ. eigenvalues --   -0.46264  -0.46041  -0.45725  -0.44813  -0.44377
  Beta  occ. eigenvalues --   -0.44181  -0.43976  -0.43909  -0.43760  -0.43448
  Beta  occ. eigenvalues --   -0.43101  -0.43062  -0.42442  -0.42158  -0.41649
  Beta  occ. eigenvalues --   -0.41491  -0.41324  -0.41290  -0.40962  -0.40469
  Beta  occ. eigenvalues --   -0.40265  -0.40116  -0.39778  -0.39685  -0.39337
  Beta  occ. eigenvalues --   -0.39096  -0.38849  -0.38352  -0.38174  -0.37236
  Beta  occ. eigenvalues --   -0.36736  -0.36489  -0.36341  -0.35763  -0.35169
  Beta  occ. eigenvalues --   -0.34606  -0.34508  -0.34017  -0.33588  -0.33118
  Beta  occ. eigenvalues --   -0.31329  -0.30971  -0.29639  -0.29266  -0.28171
  Beta  occ. eigenvalues --   -0.26767  -0.26602  -0.25161  -0.23994  -0.22819
  Beta  occ. eigenvalues --   -0.22160
  Beta virt. eigenvalues --   -0.13838  -0.13707  -0.12744  -0.10965  -0.10693
  Beta virt. eigenvalues --   -0.07723  -0.06798  -0.05901  -0.05201  -0.02185
  Beta virt. eigenvalues --   -0.01839  -0.01067  -0.00451   0.00876   0.02060
  Beta virt. eigenvalues --    0.02446   0.02969   0.03307   0.03734   0.04107
  Beta virt. eigenvalues --    0.04395   0.04472   0.05124   0.05455   0.05754
  Beta virt. eigenvalues --    0.05831   0.06709   0.06957   0.07183   0.07343
  Beta virt. eigenvalues --    0.07526   0.07761   0.07818   0.08263   0.08885
  Beta virt. eigenvalues --    0.09179   0.09376   0.09493   0.09812   0.10086
  Beta virt. eigenvalues --    0.10350   0.10759   0.10990   0.11301   0.11433
  Beta virt. eigenvalues --    0.11591   0.11852   0.12178   0.12331   0.12511
  Beta virt. eigenvalues --    0.12802   0.12915   0.13352   0.13549   0.13600
  Beta virt. eigenvalues --    0.13859   0.14103   0.14315   0.14453   0.14788
  Beta virt. eigenvalues --    0.14862   0.15082   0.15348   0.15508   0.15695
  Beta virt. eigenvalues --    0.16343   0.16497   0.16779   0.16956   0.17191
  Beta virt. eigenvalues --    0.17335   0.17596   0.17710   0.18005   0.18264
  Beta virt. eigenvalues --    0.18546   0.18620   0.18804   0.19381   0.19530
  Beta virt. eigenvalues --    0.19806   0.20046   0.20145   0.20267   0.20570
  Beta virt. eigenvalues --    0.20746   0.20897   0.21037   0.21216   0.21374
  Beta virt. eigenvalues --    0.21612   0.21680   0.22263   0.22464   0.22553
  Beta virt. eigenvalues --    0.22716   0.22920   0.23133   0.23414   0.23803
  Beta virt. eigenvalues --    0.24064   0.24369   0.24451   0.24997   0.25097
  Beta virt. eigenvalues --    0.25233   0.25292   0.25497   0.25722   0.26058
  Beta virt. eigenvalues --    0.26251   0.26454   0.26843   0.27166   0.27285
  Beta virt. eigenvalues --    0.27441   0.27707   0.27872   0.28350   0.28494
  Beta virt. eigenvalues --    0.28685   0.28857   0.28978   0.29237   0.29374
  Beta virt. eigenvalues --    0.29871   0.30030   0.30367   0.30492   0.30876
  Beta virt. eigenvalues --    0.31009   0.31186   0.31419   0.31870   0.32099
  Beta virt. eigenvalues --    0.32546   0.32688   0.32809   0.33046   0.33476
  Beta virt. eigenvalues --    0.33681   0.33834   0.34255   0.34516   0.34742
  Beta virt. eigenvalues --    0.35132   0.35446   0.35725   0.35803   0.36199
  Beta virt. eigenvalues --    0.36423   0.36562   0.36597   0.36849   0.37079
  Beta virt. eigenvalues --    0.37247   0.37502   0.37678   0.37835   0.37992
  Beta virt. eigenvalues --    0.38132   0.38493   0.38716   0.38845   0.38942
  Beta virt. eigenvalues --    0.39282   0.39649   0.39874   0.40027   0.40093
  Beta virt. eigenvalues --    0.40552   0.40777   0.40841   0.41006   0.41178
  Beta virt. eigenvalues --    0.41308   0.41662   0.41814   0.42124   0.42341
  Beta virt. eigenvalues --    0.42579   0.42932   0.43216   0.43320   0.43614
  Beta virt. eigenvalues --    0.43676   0.43766   0.43810   0.44055   0.44247
  Beta virt. eigenvalues --    0.44535   0.44736   0.44995   0.45110   0.45367
  Beta virt. eigenvalues --    0.45516   0.45913   0.46025   0.46142   0.46407
  Beta virt. eigenvalues --    0.46695   0.46845   0.46992   0.47365   0.47402
  Beta virt. eigenvalues --    0.47615   0.47822   0.48057   0.48210   0.48334
  Beta virt. eigenvalues --    0.48500   0.48786   0.48973   0.49130   0.49209
  Beta virt. eigenvalues --    0.49566   0.49790   0.49867   0.49997   0.50344
  Beta virt. eigenvalues --    0.50613   0.50705   0.50838   0.50982   0.51113
  Beta virt. eigenvalues --    0.51312   0.51392   0.51618   0.51843   0.52026
  Beta virt. eigenvalues --    0.52119   0.52540   0.52731   0.53061   0.53141
  Beta virt. eigenvalues --    0.53317   0.53456   0.53979   0.54226   0.54411
  Beta virt. eigenvalues --    0.54527   0.54870   0.55031   0.55253   0.55577
  Beta virt. eigenvalues --    0.55631   0.56178   0.56694   0.56861   0.56965
  Beta virt. eigenvalues --    0.57198   0.57494   0.57617   0.57936   0.58265
  Beta virt. eigenvalues --    0.58414   0.58695   0.58978   0.59444   0.59564
  Beta virt. eigenvalues --    0.59764   0.59988   0.60283   0.60407   0.60819
  Beta virt. eigenvalues --    0.60918   0.61121   0.61688   0.61840   0.61889
  Beta virt. eigenvalues --    0.62246   0.62396   0.62580   0.63084   0.63249
  Beta virt. eigenvalues --    0.63619   0.63744   0.64298   0.64375   0.64572
  Beta virt. eigenvalues --    0.64759   0.64959   0.65416   0.65677   0.65933
  Beta virt. eigenvalues --    0.66094   0.66281   0.66418   0.67007   0.67268
  Beta virt. eigenvalues --    0.67596   0.67889   0.68256   0.68552   0.68589
  Beta virt. eigenvalues --    0.68858   0.69096   0.69309   0.69511   0.69815
  Beta virt. eigenvalues --    0.69975   0.70192   0.70629   0.71001   0.71285
  Beta virt. eigenvalues --    0.71958   0.72024   0.72331   0.72459   0.72862
  Beta virt. eigenvalues --    0.72913   0.73285   0.73693   0.74062   0.74399
  Beta virt. eigenvalues --    0.74504   0.74805   0.75169   0.75385   0.75833
  Beta virt. eigenvalues --    0.75956   0.76240   0.76457   0.76481   0.76738
  Beta virt. eigenvalues --    0.77233   0.77495   0.77807   0.78220   0.78601
  Beta virt. eigenvalues --    0.79212   0.79596   0.79960   0.80207   0.80348
  Beta virt. eigenvalues --    0.80553   0.80998   0.81052   0.81432   0.81697
  Beta virt. eigenvalues --    0.81900   0.82088   0.82611   0.82932   0.83355
  Beta virt. eigenvalues --    0.83907   0.84052   0.84660   0.84734   0.85057
  Beta virt. eigenvalues --    0.85518   0.85676   0.85943   0.86359   0.86607
  Beta virt. eigenvalues --    0.86882   0.87732   0.87832   0.88013   0.88865
  Beta virt. eigenvalues --    0.88999   0.89641   0.89998   0.90113   0.90519
  Beta virt. eigenvalues --    0.91094   0.91571   0.91701   0.91897   0.92136
  Beta virt. eigenvalues --    0.92454   0.92624   0.93102   0.93431   0.93856
  Beta virt. eigenvalues --    0.94215   0.94306   0.94983   0.95176   0.95382
  Beta virt. eigenvalues --    0.95718   0.95913   0.96187   0.96731   0.97091
  Beta virt. eigenvalues --    0.97370   0.97712   0.98020   0.98118   0.98469
  Beta virt. eigenvalues --    0.98825   0.99456   0.99602   0.99796   1.00305
  Beta virt. eigenvalues --    1.00389   1.00541   1.00777   1.01200   1.01394
  Beta virt. eigenvalues --    1.01692   1.02050   1.02323   1.02739   1.02938
  Beta virt. eigenvalues --    1.03103   1.03659   1.03922   1.04276   1.04530
  Beta virt. eigenvalues --    1.04892   1.05026   1.05288   1.06065   1.06377
  Beta virt. eigenvalues --    1.06494   1.06662   1.07164   1.07402   1.07859
  Beta virt. eigenvalues --    1.08008   1.08257   1.08532   1.08788   1.08967
  Beta virt. eigenvalues --    1.09574   1.09746   1.10148   1.10657   1.10957
  Beta virt. eigenvalues --    1.11382   1.11759   1.12105   1.12353   1.12643
  Beta virt. eigenvalues --    1.12995   1.13215   1.13698   1.14204   1.14607
  Beta virt. eigenvalues --    1.14729   1.15287   1.15466   1.15758   1.16341
  Beta virt. eigenvalues --    1.16960   1.17170   1.17859   1.18006   1.18267
  Beta virt. eigenvalues --    1.18789   1.19419   1.19814   1.20094   1.20869
  Beta virt. eigenvalues --    1.21287   1.21601   1.21884   1.22081   1.22815
  Beta virt. eigenvalues --    1.22980   1.23334   1.23405   1.23940   1.24267
  Beta virt. eigenvalues --    1.24765   1.24983   1.25217   1.25592   1.26173
  Beta virt. eigenvalues --    1.26646   1.26874   1.27225   1.27679   1.28294
  Beta virt. eigenvalues --    1.28436   1.28794   1.29398   1.29508   1.30027
  Beta virt. eigenvalues --    1.30216   1.30994   1.31359   1.31750   1.32171
  Beta virt. eigenvalues --    1.32481   1.32807   1.33275   1.33658   1.34224
  Beta virt. eigenvalues --    1.34681   1.34829   1.35275   1.35681   1.35918
  Beta virt. eigenvalues --    1.36683   1.37119   1.37389   1.37787   1.38520
  Beta virt. eigenvalues --    1.38701   1.39745   1.39836   1.40313   1.40647
  Beta virt. eigenvalues --    1.41010   1.41311   1.41603   1.42314   1.42568
  Beta virt. eigenvalues --    1.42901   1.43305   1.43879   1.44061   1.44523
  Beta virt. eigenvalues --    1.44748   1.44914   1.45357   1.45682   1.45975
  Beta virt. eigenvalues --    1.46302   1.46588   1.46703   1.46886   1.47190
  Beta virt. eigenvalues --    1.47656   1.47801   1.48049   1.48416   1.48829
  Beta virt. eigenvalues --    1.49057   1.49765   1.50199   1.50322   1.50456
  Beta virt. eigenvalues --    1.50622   1.50946   1.51596   1.51868   1.52137
  Beta virt. eigenvalues --    1.52347   1.52764   1.53198   1.53621   1.53887
  Beta virt. eigenvalues --    1.54031   1.54353   1.54694   1.54997   1.55205
  Beta virt. eigenvalues --    1.55515   1.56203   1.56417   1.56580   1.56879
  Beta virt. eigenvalues --    1.57271   1.57421   1.57627   1.58066   1.58354
  Beta virt. eigenvalues --    1.58413   1.58646   1.59043   1.59268   1.59336
  Beta virt. eigenvalues --    1.59778   1.59849   1.60164   1.60458   1.60587
  Beta virt. eigenvalues --    1.60859   1.61064   1.61268   1.61620   1.62101
  Beta virt. eigenvalues --    1.62224   1.62689   1.62787   1.62989   1.63457
  Beta virt. eigenvalues --    1.63723   1.63933   1.64453   1.64632   1.64958
  Beta virt. eigenvalues --    1.65624   1.65753   1.66270   1.66285   1.67026
  Beta virt. eigenvalues --    1.67284   1.67635   1.67789   1.68462   1.68602
  Beta virt. eigenvalues --    1.68907   1.69151   1.69704   1.69765   1.70257
  Beta virt. eigenvalues --    1.70472   1.70971   1.71351   1.71974   1.72213
  Beta virt. eigenvalues --    1.72788   1.72881   1.73180   1.73530   1.73730
  Beta virt. eigenvalues --    1.74134   1.74409   1.75497   1.75921   1.76367
  Beta virt. eigenvalues --    1.76500   1.77060   1.77442   1.77727   1.78026
  Beta virt. eigenvalues --    1.78799   1.79092   1.79633   1.79834   1.80096
  Beta virt. eigenvalues --    1.80387   1.81125   1.81364   1.81483   1.81866
  Beta virt. eigenvalues --    1.82208   1.82342   1.83164   1.83384   1.83702
  Beta virt. eigenvalues --    1.84229   1.84841   1.84881   1.85681   1.85899
  Beta virt. eigenvalues --    1.86118   1.86611   1.87037   1.87720   1.87988
  Beta virt. eigenvalues --    1.88394   1.88556   1.88645   1.89264   1.89391
  Beta virt. eigenvalues --    1.89451   1.89933   1.90354   1.91137   1.91382
  Beta virt. eigenvalues --    1.91853   1.92081   1.92450   1.92843   1.93201
  Beta virt. eigenvalues --    1.93221   1.93299   1.94148   1.94447   1.94978
  Beta virt. eigenvalues --    1.95360   1.95423   1.95849   1.96187   1.96488
  Beta virt. eigenvalues --    1.96743   1.97065   1.97627   1.98006   1.98266
  Beta virt. eigenvalues --    1.98517   1.98925   1.99154   2.00021   2.00098
  Beta virt. eigenvalues --    2.00624   2.01339   2.01616   2.02091   2.02238
  Beta virt. eigenvalues --    2.02461   2.02819   2.03308   2.04093   2.04413
  Beta virt. eigenvalues --    2.04630   2.04922   2.05448   2.05521   2.05733
  Beta virt. eigenvalues --    2.06318   2.06447   2.07000   2.07407   2.07872
  Beta virt. eigenvalues --    2.08188   2.08628   2.09130   2.09514   2.10222
  Beta virt. eigenvalues --    2.11059   2.11513   2.11705   2.12701   2.12922
  Beta virt. eigenvalues --    2.12957   2.13639   2.13902   2.14177   2.14711
  Beta virt. eigenvalues --    2.14975   2.15301   2.15478   2.16041   2.16433
  Beta virt. eigenvalues --    2.16815   2.17313   2.17677   2.17760   2.18215
  Beta virt. eigenvalues --    2.18833   2.19245   2.19569   2.20288   2.20735
[...]
 
              Baa    -0.0310    -4.155    -1.483    -1.386  0.3166  0.0989  0.9434
    25 C(13)  Bbb    -0.0273    -3.670    -1.309    -1.224  0.9078 -0.3200 -0.2711
              Bcc     0.0583     7.825     2.792     2.610  0.2751  0.9422 -0.1912
 
              Baa    -0.0048    -0.646    -0.231    -0.215  0.3716 -0.2409  0.8966
    26 C(13)  Bbb    -0.0045    -0.608    -0.217    -0.203 -0.3252  0.8708  0.3688
              Bcc     0.0093     1.254     0.447     0.418  0.8696  0.4286 -0.2452
 
              Baa    -0.0254    -3.410    -1.217    -1.137 -0.0459  0.1903  0.9807
    27 C(13)  Bbb     0.0046     0.620     0.221     0.207  0.9303 -0.3494  0.1114
              Bcc     0.0208     2.790     0.996     0.931  0.3638  0.9175 -0.1610
 
              Baa    -0.0199    -2.670    -0.953    -0.891  0.7987 -0.3312  0.5023
    28 C(13)  Bbb    -0.0124    -1.669    -0.596    -0.557  0.5012  0.8282 -0.2508
              Bcc     0.0323     4.339     1.548     1.447 -0.3330  0.4520  0.8275
 
              Baa    -0.0290    -3.890    -1.388    -1.297 -0.4482 -0.1358  0.8836
    29 C(13)  Bbb    -0.0261    -3.499    -1.249    -1.167  0.8316  0.2993  0.4678
              Bcc     0.0551     7.389     2.637     2.465 -0.3280  0.9444 -0.0212
 
              Baa    -0.0178    -2.388    -0.852    -0.796  0.7588  0.6476 -0.0700
    30 C(13)  Bbb     0.0009     0.121     0.043     0.040 -0.0038  0.1119  0.9937
              Bcc     0.0169     2.267     0.809     0.756 -0.6513  0.7538 -0.0874
 
              Baa    -0.0190    -2.544    -0.908    -0.848  0.6127  0.7734 -0.1624
    31 C(13)  Bbb     0.0019     0.255     0.091     0.085  0.0646  0.1557  0.9857
              Bcc     0.0171     2.289     0.817     0.763  0.7876 -0.6145  0.0455
 
              Baa    -0.0321    -4.304    -1.536    -1.436  0.1645  0.2081  0.9642
    32 C(13)  Bbb    -0.0265    -3.561    -1.271    -1.188  0.2706  0.9305 -0.2470
              Bcc     0.0586     7.864     2.806     2.623  0.9485 -0.3015 -0.0968
 
              Baa    -0.0051    -0.681    -0.243    -0.227  0.8310  0.4287 -0.3546
    33 C(13)  Bbb    -0.0045    -0.598    -0.213    -0.200  0.3608  0.0700  0.9300
              Bcc     0.0095     1.279     0.456     0.427 -0.4235  0.9007  0.0965
 
              Baa    -0.0052    -0.698    -0.249    -0.233  0.4334  0.8698  0.2358
    34 C(13)  Bbb    -0.0049    -0.660    -0.235    -0.220  0.0624 -0.2900  0.9550
              Bcc     0.0101     1.357     0.484     0.453  0.8990 -0.3992 -0.1800
 
              Baa    -0.0035    -0.464    -0.166    -0.155  0.3542  0.7103 -0.6083
    35 C(13)  Bbb    -0.0027    -0.360    -0.129    -0.120  0.0947  0.6198  0.7790
              Bcc     0.0061     0.824     0.294     0.275  0.9304 -0.3335  0.1523
 
              Baa    -0.0017    -0.232    -0.083    -0.077  0.0217  0.0738  0.9970
    36 C(13)  Bbb    -0.0016    -0.221    -0.079    -0.074  0.3047  0.9493 -0.0769
              Bcc     0.0034     0.452     0.161     0.151  0.9522 -0.3055  0.0019
 
              Baa    -0.0016     0.118     0.042     0.039  0.1190  0.7566  0.6430
    37 O(17)  Bbb    -0.0014     0.103     0.037     0.034 -0.1339 -0.6295  0.7654
              Bcc     0.0030    -0.220    -0.079    -0.074  0.9838 -0.1771  0.0264
 
              Baa    -0.0013     0.097     0.035     0.032 -0.1034 -0.5584  0.8231
    38 O(17)  Bbb    -0.0013     0.092     0.033     0.031  0.3536  0.7528  0.5552
              Bcc     0.0026    -0.190    -0.068    -0.063  0.9297 -0.3484 -0.1196
 
              Baa    -0.1912    -7.375    -2.631    -2.460  0.7115 -0.6879 -0.1433
    39 N(14)  Bbb    -0.1073    -4.140    -1.477    -1.381  0.1342 -0.0672  0.9887
              Bcc     0.2986    11.515     4.109     3.841  0.6897  0.7227 -0.0445
 
              Baa    -0.1761    -6.791    -2.423    -2.265  0.6923  0.7198 -0.0507
    40 N(14)  Bbb    -0.1074    -4.141    -1.478    -1.381  0.1007 -0.0268  0.9946
              Bcc     0.2835    10.932     3.901     3.647  0.7145 -0.6936 -0.0910
 
              Baa    -0.1809    -6.976    -2.489    -2.327  0.7307 -0.6822 -0.0242
    41 N(14)  Bbb    -0.1261    -4.864    -1.735    -1.622  0.1641  0.1411  0.9763
              Bcc     0.3070    11.839     4.225     3.949  0.6627  0.7174 -0.2151
 
              Baa    -0.1908    -7.359    -2.626    -2.455  0.6744  0.7215 -0.1573
    42 N(14)  Bbb    -0.1230    -4.746    -1.693    -1.583  0.1225  0.1007  0.9873
              Bcc     0.3139    12.105     4.319     4.038  0.7282 -0.6851 -0.0204
 
              Baa    -0.0330    -0.572    -0.204    -0.191 -0.0366  0.9388  0.3424
    43 Fe(57) Bbb     0.0031     0.053     0.019     0.018 -0.4805 -0.3170  0.8177
              Bcc     0.0300     0.519     0.185     0.173  0.8762 -0.1346  0.4627
 
              Baa    -0.0165    -0.638    -0.228    -0.213 -0.2126  0.9711  0.1085
    44 N(14)  Bbb    -0.0076    -0.293    -0.104    -0.098  0.8745  0.2386 -0.4223
              Bcc     0.0241     0.931     0.332     0.310  0.4360 -0.0051  0.8999
 
              Baa    -0.0367    -4.928    -1.758    -1.644  0.2875  0.9194  0.2685
    45 C(13)  Bbb    -0.0149    -1.996    -0.712    -0.666  0.9264 -0.1958 -0.3215
              Bcc     0.0516     6.924     2.471     2.309  0.2430 -0.3412  0.9080
 
              Baa    -0.1792    -6.910    -2.466    -2.305 -0.0540  0.9943 -0.0923
    46 N(14)  Bbb    -0.1339    -5.165    -1.843    -1.723  0.9516  0.0232 -0.3065
              Bcc     0.3131    12.075     4.309     4.028  0.3026  0.1044  0.9474
 
              Baa    -0.0342    -4.588    -1.637    -1.530  0.9712 -0.0559 -0.2314
    47 C(13)  Bbb    -0.0258    -3.465    -1.237    -1.156 -0.0805  0.8377 -0.5401
              Bcc     0.0600     8.053     2.874     2.686  0.2241  0.5432  0.8091
 
              Baa    -0.0154    -2.060    -0.735    -0.687 -0.0644  0.9809 -0.1833
    48 C(13)  Bbb    -0.0048    -0.648    -0.231    -0.216  0.9340 -0.0054 -0.3571
              Bcc     0.0202     2.707     0.966     0.903  0.3513  0.1942  0.9159
 
              Baa    -0.0070    -3.743    -1.336    -1.249  0.9181  0.0897 -0.3861
    49 H(1)   Bbb    -0.0065    -3.447    -1.230    -1.150 -0.0076  0.9779  0.2090
              Bcc     0.0135     7.190     2.566     2.398  0.3963 -0.1890  0.8985
 
              Baa    -0.1677    12.133     4.329     4.047 -0.3393  0.8739 -0.3481
    50 O(17)  Bbb    -0.1560    11.292     4.029     3.766  0.9169  0.2246 -0.3299
              Bcc     0.3237   -23.425    -8.359    -7.814  0.2101  0.4312  0.8775
 
              Baa    -0.0059    -3.173    -1.132    -1.058  0.8923  0.2069 -0.4012
    51 H(1)   Bbb    -0.0058    -3.087    -1.101    -1.030 -0.3345  0.8999 -0.2799
              Bcc     0.0117     6.260     2.234     2.088  0.3031  0.3840  0.8721
 
              Baa    -0.0205   -10.962    -3.912    -3.657  0.9931  0.0060 -0.1169
    52 H(1)   Bbb    -0.0192   -10.254    -3.659    -3.421  0.0892 -0.6851  0.7230
              Bcc     0.0398    21.217     7.571     7.077  0.0758  0.7284  0.6809
 
              Baa    -0.0240   -12.794    -4.565    -4.268  0.9534  0.2934 -0.0709
    53 H(1)   Bbb    -0.0213   -11.346    -4.049    -3.785 -0.1815  0.7451  0.6417
              Bcc     0.0452    24.141     8.614     8.052  0.2411 -0.5989  0.7636
 
              Baa    -0.0037    -1.951    -0.696    -0.651  0.8557  0.3790  0.3524
    54 H(1)   Bbb    -0.0031    -1.680    -0.599    -0.560 -0.2309 -0.3299  0.9154
              Bcc     0.0068     3.631     1.296     1.211 -0.4632  0.8646  0.1947
 
              Baa    -0.0038    -2.048    -0.731    -0.683  0.7717  0.3984 -0.4957
    55 H(1)   Bbb    -0.0032    -1.683    -0.600    -0.561  0.3606  0.3679  0.8571
              Bcc     0.0070     3.731     1.331     1.244 -0.5238  0.8402 -0.1402
 
              Baa    -0.0044    -2.338    -0.834    -0.780  0.1591  0.0577  0.9856
    56 H(1)   Bbb    -0.0040    -2.109    -0.753    -0.703  0.9509  0.2596 -0.1687
              Bcc     0.0083     4.447     1.587     1.483 -0.2655  0.9640 -0.0136
 
              Baa    -0.0036    -1.925    -0.687    -0.642 -0.3444  0.0984  0.9336
    57 H(1)   Bbb    -0.0020    -1.083    -0.387    -0.361  0.7297  0.6538  0.2003
              Bcc     0.0056     3.009     1.074     1.004 -0.5907  0.7502 -0.2970
 
              Baa    -0.0058    -3.071    -1.096    -1.024 -0.3222 -0.5564  0.7659
    58 H(1)   Bbb    -0.0027    -1.420    -0.507    -0.474  0.4828  0.5993  0.6385
              Bcc     0.0084     4.491     1.602     1.498  0.8143 -0.5755 -0.0755
 
              Baa    -0.0038    -2.012    -0.718    -0.671  0.1429 -0.2303  0.9626
    59 H(1)   Bbb    -0.0022    -1.156    -0.412    -0.386  0.0228  0.9731  0.2294
              Bcc     0.0059     3.168     1.130     1.057  0.9895  0.0108 -0.1443
 
              Baa    -0.0086    -4.600    -1.641    -1.534  0.1717  0.1278  0.9768
    60 H(1)   Bbb    -0.0070    -3.737    -1.333    -1.246 -0.0392  0.9916 -0.1229
              Bcc     0.0156     8.337     2.975     2.781  0.9844  0.0172 -0.1752
 
              Baa    -0.0032    -1.730    -0.617    -0.577  0.2523  0.1589  0.9545
    61 H(1)   Bbb    -0.0025    -1.325    -0.473    -0.442 -0.5782  0.8157  0.0170
              Bcc     0.0057     3.056     1.090     1.019  0.7759  0.5562 -0.2977
 
              Baa    -0.0036    -1.908    -0.681    -0.636 -0.2060  0.5577  0.8041
    62 H(1)   Bbb    -0.0032    -1.712    -0.611    -0.571 -0.3643  0.7189 -0.5920
              Bcc     0.0068     3.620     1.292     1.207  0.9082  0.4149 -0.0551
 
              Baa    -0.0040    -2.148    -0.767    -0.717  0.3988 -0.1156  0.9097
    63 H(1)   Bbb    -0.0035    -1.859    -0.663    -0.620 -0.2272  0.9486  0.2201
              Bcc     0.0075     4.008     1.430     1.337  0.8884  0.2945 -0.3520
 
              Baa    -0.0031    -1.650    -0.589    -0.550  0.9487 -0.0421  0.3134
    64 H(1)   Bbb    -0.0015    -0.787    -0.281    -0.262 -0.2679  0.4194  0.8674
              Bcc     0.0046     2.436     0.869     0.813  0.1679  0.9068 -0.3867
 
              Baa    -0.0021    -1.104    -0.394    -0.368 -0.3322  0.2985  0.8947
    65 H(1)   Bbb    -0.0008    -0.416    -0.148    -0.139 -0.5225  0.7316 -0.4380
              Bcc     0.0028     1.520     0.542     0.507  0.7853  0.6130  0.0871
 
              Baa    -0.0048    -2.560    -0.913    -0.854 -0.5899  0.3393  0.7327
    66 H(1)   Bbb    -0.0048    -2.535    -0.905    -0.846  0.7639 -0.0597  0.6426
              Bcc     0.0095     5.095     1.818     1.699  0.2618  0.9388 -0.2239
 
              Baa    -0.0086    -4.606    -1.644    -1.536  0.2325  0.1092  0.9664
    67 H(1)   Bbb    -0.0072    -3.837    -1.369    -1.280  0.9723 -0.0018 -0.2337
              Bcc     0.0158     8.443     3.013     2.816 -0.0238  0.9940 -0.1066
 
              Baa    -0.0032    -1.702    -0.607    -0.568 -0.5304 -0.2638  0.8057
    68 H(1)   Bbb    -0.0030    -1.627    -0.581    -0.543  0.6720  0.4486  0.5892
              Bcc     0.0062     3.329     1.188     1.110 -0.5169  0.8539 -0.0606
 
              Baa    -0.0034    -1.807    -0.645    -0.603  0.7811  0.2780  0.5591
    69 H(1)   Bbb    -0.0033    -1.753    -0.626    -0.585 -0.3933 -0.4766  0.7863
              Bcc     0.0067     3.561     1.270     1.188 -0.4850  0.8340  0.2629
 
              Baa    -0.0042    -2.232    -0.797    -0.745  0.0612 -0.0589  0.9964
    70 H(1)   Bbb    -0.0037    -1.977    -0.706    -0.660  0.9609  0.2736 -0.0429
              Bcc     0.0079     4.210     1.502     1.404 -0.2700  0.9601  0.0734
 
              Baa    -0.0033    -1.782    -0.636    -0.594  0.1384 -0.2270  0.9640
    71 H(1)   Bbb    -0.0031    -1.655    -0.591    -0.552  0.5754  0.8107  0.1083
              Bcc     0.0064     3.437     1.226     1.146  0.8061 -0.5397 -0.2428
 
              Baa    -0.0044    -2.354    -0.840    -0.785  0.3362  0.2362  0.9117
    72 H(1)   Bbb    -0.0039    -2.070    -0.739    -0.690  0.1889  0.9315 -0.3109
              Bcc     0.0083     4.424     1.579     1.476  0.9227 -0.2767 -0.2685
 
              Baa    -0.0026    -1.396    -0.498    -0.466  0.2706  0.6727  0.6887
    73 H(1)   Bbb    -0.0025    -1.360    -0.485    -0.454 -0.4660 -0.5345  0.7051
              Bcc     0.0052     2.757     0.984     0.920  0.8424 -0.5117  0.1688
 
              Baa    -0.0036    -1.918    -0.684    -0.640 -0.2916 -0.4437  0.8474
    74 H(1)   Bbb    -0.0033    -1.746    -0.623    -0.582  0.1503  0.8537  0.4986
              Bcc     0.0069     3.663     1.307     1.222  0.9447 -0.2728  0.1822
 
              Baa    -0.0375   -20.010    -7.140    -6.675  0.8758 -0.4825 -0.0126
    75 H(1)   Bbb    -0.0296   -15.776    -5.629    -5.262  0.4823  0.8740  0.0593
              Bcc     0.0671    35.787    12.770    11.937 -0.0176 -0.0580  0.9982
 
              Baa    -0.1046   -55.831   -19.922   -18.623  0.7329  0.6560 -0.1802
    76 H(1)   Bbb    -0.0739   -39.414   -14.064   -13.147  0.6405 -0.5762  0.5077
              Bcc     0.1785    95.245    33.986    31.770 -0.2293  0.4875  0.8425
 
              Baa    -0.0033    -1.739    -0.621    -0.580  0.0259  0.2185  0.9755
    77 H(1)   Bbb    -0.0030    -1.609    -0.574    -0.537 -0.5667  0.8071 -0.1657
              Bcc     0.0063     3.348     1.195     1.117  0.8235  0.5485 -0.1447
 
              Baa    -0.0044    -2.346    -0.837    -0.782  0.2084 -0.1616  0.9646
    78 H(1)   Bbb    -0.0039    -2.066    -0.737    -0.689 -0.2629  0.9407  0.2144
              Bcc     0.0083     4.412     1.574     1.472  0.9421  0.2982 -0.1536
 
              Baa    -0.0036    -1.919    -0.685    -0.640 -0.3858  0.3963  0.8331
    79 H(1)   Bbb    -0.0033    -1.783    -0.636    -0.595 -0.1345  0.8692 -0.4758
              Bcc     0.0069     3.702     1.321     1.235  0.9127  0.2956  0.2821
 
              Baa    -0.0027    -1.418    -0.506    -0.473 -0.2316  0.6934 -0.6823
    80 H(1)   Bbb    -0.0026    -1.401    -0.500    -0.467 -0.5449  0.4886  0.6814
              Bcc     0.0053     2.818     1.006     0.940  0.8059  0.5296  0.2647
 
              Baa    -0.0013    -0.703    -0.251    -0.234 -0.3020  0.2842  0.9099
    81 H(1)   Bbb    -0.0013    -0.685    -0.245    -0.229 -0.0918  0.9414 -0.3245
              Bcc     0.0026     1.388     0.495     0.463  0.9489  0.1816  0.2582
 
              Baa    -0.0037    -1.952    -0.696    -0.651  0.6129 -0.3793  0.6932
    82 H(1)   Bbb    -0.0033    -1.761    -0.628    -0.587 -0.6973  0.1530  0.7003
              Bcc     0.0070     3.713     1.325     1.238  0.3717  0.9125  0.1707
 
              Baa    -0.0040    -2.141    -0.764    -0.714 -0.2255  0.2173  0.9497
    83 H(1)   Bbb    -0.0035    -1.875    -0.669    -0.625  0.9303 -0.2414  0.2761
              Bcc     0.0075     4.016     1.433     1.340  0.2893  0.9458 -0.1477
 
              Baa    -0.0032    -1.690    -0.603    -0.564  0.2132 -0.0599  0.9752
    84 H(1)   Bbb    -0.0029    -1.556    -0.555    -0.519  0.8072 -0.5516 -0.2104
              Bcc     0.0061     3.246     1.158     1.083  0.5505  0.8320 -0.0692
 
              Baa    -0.0090    -4.826    -1.722    -1.610  0.0996 -0.0679  0.9927
    85 H(1)   Bbb    -0.0081    -4.329    -1.545    -1.444 -0.0175  0.9974  0.0700
              Bcc     0.0172     9.155     3.267     3.054  0.9949  0.0244 -0.0981
 
              Baa    -0.0084    -4.508    -1.609    -1.504  0.0131 -0.0707  0.9974
    86 H(1)   Bbb    -0.0078    -4.150    -1.481    -1.384  0.9996  0.0242 -0.0115
              Bcc     0.0162     8.658     3.090     2.888 -0.0234  0.9972  0.0710
 
              Baa    -0.0010    -0.540    -0.193    -0.180  0.0476 -0.1646  0.9852
    87 H(1)   Bbb    -0.0010    -0.532    -0.190    -0.177  0.4397  0.8891  0.1273
              Bcc     0.0020     1.072     0.382     0.358  0.8969 -0.4271 -0.1147
 

 ---------------------------------------------------------------------------------

 1\1\GINC-NODE841\SP\UPBE1PBE\def2TZVP\C37H38Fe1N6O5(1+,6)\ZHARTOVSKA\2
 8-Jan-2023\0\\# PBE1PBE/def2TZVP empiricaldispersion=GD3BJ int=(grid=u
 ltrafine) geom=check guess=read scrf=(smd,solvent=Chloroform)\\1ccg_II
 I_H_solv\\1,6\C,0,-5.506,53.923,112.93\C,0,-7.562,57.972,114.377998\C,
 0,-5.926,60.125999,110.472\C,0,-3.654,56.113998,109.164001\C,0,-6.228,
 54.827,113.697998\C,0,-6.758,54.532001,114.942001\C,0,-7.395,55.715,11
 5.374001\C,0,-7.147,56.641998,114.369003\C,0,-8.23,55.922001,116.64499
 7\C,0,-6.626,53.173,115.640999\C,0,-5.472,53.012001,116.584\C,0,-5.394
 ,51.617001,117.223999\O,0,-6.246,51.259998,118.040001\O,0,-4.475,50.84
 7,116.942001\C,0,-7.381,58.931999,113.375999\C,0,-7.941,60.210999,113.
 411003\C,0,-7.522,60.812,112.232002\C,0,-6.685,59.879002,111.612\C,0,-
 8.919,60.678001,114.485001\C,0,-7.826,62.055,111.651001\C,0,-8.743,63.
 063999,112.110001\C,0,-5.081,59.252998,109.775002\C,0,-4.298,59.622002
 ,108.682999\C,0,-3.589,58.445999,108.365997\C,0,-4.047,57.462002,109.2
 28996\C,0,-4.188,61.047001,108.081001\C,0,-2.635,58.152,107.377998\C,0
 ,-2.272,58.924,106.227997\C,0,-4.,55.082001,110.014\C,0,-3.674,53.7529
 98,109.834\C,0,-4.208,53.123001,110.963997\C,0,-4.83,54.109001,111.714
 996\C,0,-3.02,53.098999,108.612999\C,0,-4.19,51.630001,111.269997\C,0,
 -3.016,51.229,112.144997\C,0,-3.008,49.790001,112.600998\O,0,-2.443,49
 .528,113.656998\O,0,-3.547,48.922001,111.917999\N,0,-6.462,56.099998,1
 13.359001\N,0,-6.701,58.710999,112.254997\N,0,-4.921,57.955002,110.103
 996\N,0,-4.723,55.273998,111.115997\Fe,0,-5.857,56.937,111.602997\N,0,
 -9.264,56.771999,109.591003\C,0,-8.576,56.827999,110.692001\N,0,-7.374
 ,56.400002,110.419998\C,0,-7.308,56.078999,109.165001\C,0,-8.548,56.31
 7001,108.603996\H,0,-10.166,57.108002,109.492996\O,0,-4.422,57.485001,
 112.862\H,0,-8.85064843,56.16247539,107.58938979\H,0,-6.44757431,55.69
 817754,108.65554772\H,0,-8.92966584,57.16293345,111.6447021\H,0,-8.477
 03616,61.47303368,115.04846439\H,0,-9.81819471,61.02643021,114.0213783
 5\H,0,-9.14761543,59.86203563,115.13832749\H,0,-8.42477212,64.08300091
 ,112.18256908\H,0,-9.74325724,62.79545327,112.37882928\H,0,-7.30480636
 ,62.28163653,110.74441781\H,0,-5.99760269,61.11670074,110.07415189\H,0
 ,-3.29125105,61.12135216,107.50202499\H,0,-5.03415292,61.23551722,107.
 45379539\H,0,-4.16270198,61.7673059,108.87183655\H,0,-1.30666668,58.80
 008259,105.78338924\H,0,-2.9660696,59.62481928,105.8132444\H,0,-2.1095
 0113,57.22809341,107.5010734\H,0,-3.00493131,55.8547559,108.35381376\H
 ,0,-2.07770052,52.67820197,108.89566761\H,0,-3.65773385,52.32595592,10
 8.23803241\H,0,-2.86771719,53.83599136,107.8523728\H,0,-4.13470648,51.
 0890761,110.34845325\H,0,-5.09898196,51.36890342,111.77047662\H,0,-2.1
 1413607,51.41183062,111.59899845\H,0,-3.01659566,51.85485271,113.01287
 259\H,0,-3.57066867,57.92866188,112.862\H,0,-5.12406459,58.13975691,11
 2.862\H,0,-7.52743218,52.99509964,116.1893342\H,0,-6.54208858,52.42010
 505,114.88534824\H,0,-4.56411051,53.19346777,116.04761721\H,0,-5.56200
 633,53.74079509,117.36224034\H,0,-3.56332963,51.1294171,117.04543081\H
 ,0,-7.6910114,56.54435544,117.32841945\H,0,-9.15708263,56.39154393,116
 .39014951\H,0,-8.42404701,54.97441953,117.10252855\H,0,-5.45781913,52.
 93038165,113.32659478\H,0,-8.08069943,58.29811494,115.25520946\H,0,-3.
 01035017,48.29644599,111.42577153\\Version=AM64L-G16RevA.03\State=6-A\
 HF=-3399.2288506\S2=8.762856\S2-1=0.\S2A=8.750049\RMSD=4.931e-09\Dipol
 e=-1.5508057,3.3077279,-4.1583546\Quadrupole=13.596223,-1.3527533,-12.
 2434697,-26.7580869,2.8252353,32.8671421\PG=C01 [X(C37H38Fe1N6O5)]\\@


 IF YOU PERCEIVE THAT THERE ARE FOUR POSSIBLE WAYS IN
 WHICH A PROCEDURE CAN GO WRONG AND CIRCUMVENT THESE, 
 THEN A FIFTH WAY WILL DEVELOP.

                              -- MURPHY'S TWELFTH LAW
 Job cpu time:       3 days 11 hours 17 minutes 24.8 seconds.
 Elapsed time:       0 days 20 hours 54 minutes 22.1 seconds.
 File lengths (MBytes):  RWF=   3540 Int=      0 D2E=      0 Chk=    241 Scr=      1
 Normal termination of Gaussian 16 at Sat Jan 28 18:17:24 2023.
