 Entering Gaussian System, Link 0=g16
 Input=/net/homes/chemie/zhartovska/work/BioModel/Konrad/1ccg/1ccg12/1ccg16/1ccg16.com
 Output=/net/homes/chemie/zhartovska/work/BioModel/Konrad/1ccg/1ccg12/1ccg16/1ccg16.log
 Initial command:
 /afs/math/software/gaussian/g16.A03/g16/l1.exe "/scratch/zhartovska_gaussian.dL9TxGN/Gau-31122.inp" -scrdir="/scratch/zhartovska_gaussian.dL9TxGN/"
 Entering Link 1 = /afs/math/software/gaussian/g16.A03/g16/l1.exe PID=     31123.
  
 Copyright (c) 1988,1990,1992,1993,1995,1998,2003,2009,2016,
            Gaussian, Inc.  All Rights Reserved.
  
 This is part of the Gaussian(R) 16 program.  It is based on
 the Gaussian(R) 09 system (copyright 2009, Gaussian, Inc.),
 the Gaussian(R) 03 system (copyright 2003, Gaussian, Inc.),
 the Gaussian(R) 98 system (copyright 1998, Gaussian, Inc.),
 the Gaussian(R) 94 system (copyright 1995, Gaussian, Inc.),
 the Gaussian 92(TM) system (copyright 1992, Gaussian, Inc.),
 the Gaussian 90(TM) system (copyright 1990, Gaussian, Inc.),
 the Gaussian 88(TM) system (copyright 1988, Gaussian, Inc.),
 the Gaussian 86(TM) system (copyright 1986, Carnegie Mellon
 University), and the Gaussian 82(TM) system (copyright 1983,
 Carnegie Mellon University). Gaussian is a federally registered
 trademark of Gaussian, Inc.
  
 This software contains proprietary and confidential information,
 including trade secrets, belonging to Gaussian, Inc.
  
 This software is provided under written license and may be
 used, copied, transmitted, or stored only in accord with that
 written license.
  
 The following legend is applicable only to US Government
 contracts under FAR:
  
                    RESTRICTED RIGHTS LEGEND
  
 Use, reproduction and disclosure by the US Government is
 subject to restrictions as set forth in subparagraphs (a)
 and (c) of the Commercial Computer Software - Restricted
 Rights clause in FAR 52.227-19.
  
 Gaussian, Inc.
 340 Quinnipiac St., Bldg. 40, Wallingford CT 06492
  
  
 ---------------------------------------------------------------
 Warning -- This program may not be used in any manner that
 competes with the business of Gaussian, Inc. or will provide
 assistance to any competitor of Gaussian, Inc.  The licensee
 of this program is prohibited from giving any competitor of
 Gaussian, Inc. access to this program.  By using this program,
 the user acknowledges that Gaussian, Inc. is engaged in the
 business of creating and licensing software in the field of
 computational chemistry and represents and warrants to the
 licensee that it is not a competitor of Gaussian, Inc. and that
 it will not use this program in any manner prohibited above.
 ---------------------------------------------------------------
  

 Cite this work as:
 Gaussian 16, Revision A.03,
 M. J. Frisch, G. W. Trucks, H. B. Schlegel, G. E. Scuseria, 
 M. A. Robb, J. R. Cheeseman, G. Scalmani, V. Barone, 
 G. A. Petersson, H. Nakatsuji, X. Li, M. Caricato, A. V. Marenich, 
 J. Bloino, B. G. Janesko, R. Gomperts, B. Mennucci, H. P. Hratchian, 
 J. V. Ortiz, A. F. Izmaylov, J. L. Sonnenberg, D. Williams-Young, 
 F. Ding, F. Lipparini, F. Egidi, J. Goings, B. Peng, A. Petrone, 
 T. Henderson, D. Ranasinghe, V. G. Zakrzewski, J. Gao, N. Rega, 
 G. Zheng, W. Liang, M. Hada, M. Ehara, K. Toyota, R. Fukuda, 
 J. Hasegawa, M. Ishida, T. Nakajima, Y. Honda, O. Kitao, H. Nakai, 
 T. Vreven, K. Throssell, J. A. Montgomery, Jr., J. E. Peralta, 
 F. Ogliaro, M. J. Bearpark, J. J. Heyd, E. N. Brothers, K. N. Kudin, 
 V. N. Staroverov, T. A. Keith, R. Kobayashi, J. Normand, 
 K. Raghavachari, A. P. Rendell, J. C. Burant, S. S. Iyengar, 
 J. Tomasi, M. Cossi, J. M. Millam, M. Klene, C. Adamo, R. Cammi, 
 J. W. Ochterski, R. L. Martin, K. Morokuma, O. Farkas, 
 J. B. Foresman, and D. J. Fox, Gaussian, Inc., Wallingford CT, 2016.
 
 ******************************************
 Gaussian 16:  AM64L-G16RevA.03 25-Dec-2016
                26-Jan-2023 
 ******************************************
 %nprocs=12
 Will use up to   12 processors via shared memory.
 %mem=16GB
 %oldchk=1ccg_III_D.chk
 %chk=1ccg_III_H.chk
 Copying data from "1ccg_III_D.chk" to current chk file "1ccg_III_H.chk"
 IOpt=  2 FromEx=T IUOpen= 4 IOptOp= 5 NList=   0 IFRang= 0 IUIn= 4 IUOut= 2.
 ----------------------------------------------------------------------
 # PBE1PBE/def2TZVP empiricaldispersion=GD3BJ int=(grid=ultrafine) geom
 =check pop=nbo
 ----------------------------------------------------------------------
 1/29=2,38=1,172=1/1;
 2/12=2,40=1/2;
 3/5=44,7=101,11=2,14=-4,25=1,30=1,74=-13,75=-5,124=41/1,2,3;
 4//1;
 5/5=2,38=5/2;
 6/7=2,8=2,9=2,10=2,28=1,40=1/1,7;
 99/5=1,9=1/99;
 ----------
 1ccg_III_H
 ----------
 Structure from the checkpoint file:  "1ccg_III_H.chk"
 Charge =  1 Multiplicity = 6
 Z-Matrix found in chk file.
 C,0,-5.506,53.923,112.93
 C,0,-7.562,57.972,114.377998
 C,0,-5.926,60.125999,110.472
 C,0,-3.654,56.113998,109.164001
 C,0,-6.228,54.827,113.697998
 C,0,-6.758,54.532001,114.942001
 C,0,-7.395,55.715,115.374001
 C,0,-7.147,56.641998,114.369003
 C,0,-8.23,55.922001,116.644997
 C,0,-6.626,53.173,115.640999
 C,0,-5.472,53.012001,116.584
 C,0,-5.394,51.617001,117.223999
 O,0,-6.246,51.259998,118.040001
 O,0,-4.475,50.847,116.942001
 C,0,-7.381,58.931999,113.375999
 C,0,-7.941,60.210999,113.411003
 C,0,-7.522,60.812,112.232002
 C,0,-6.685,59.879002,111.612
 C,0,-8.919,60.678001,114.485001
 C,0,-7.826,62.055,111.651001
 C,0,-8.743,63.063999,112.110001
 C,0,-5.081,59.252998,109.775002
 C,0,-4.298,59.622002,108.682999
 C,0,-3.589,58.445999,108.365997
 C,0,-4.047,57.462002,109.228996
 C,0,-4.188,61.047001,108.081001
 C,0,-2.635,58.152,107.377998
 C,0,-2.272,58.924,106.227997
 C,0,-4.,55.082001,110.014
 C,0,-3.674,53.752998,109.834
 C,0,-4.208,53.123001,110.963997
 C,0,-4.83,54.109001,111.714996
 C,0,-3.02,53.098999,108.612999
 C,0,-4.19,51.630001,111.269997
 C,0,-3.016,51.229,112.144997
 C,0,-3.008,49.790001,112.600998
 O,0,-2.443,49.528,113.656998
 O,0,-3.547,48.922001,111.917999
 N,0,-6.462,56.099998,113.359001
 N,0,-6.701,58.710999,112.254997
 N,0,-4.921,57.955002,110.103996
 N,0,-4.723,55.273998,111.115997
 Fe,0,-5.857,56.937,111.602997
 N,0,-9.264,56.771999,109.591003
 C,0,-8.576,56.827999,110.692001
 N,0,-7.374,56.400002,110.419998
 C,0,-7.308,56.078999,109.165001
 C,0,-8.548,56.317001,108.603996
 H,0,-10.166,57.108002,109.492996
 O,0,-4.422,57.485001,112.862
 H,0,-8.85064843,56.16247539,107.58938979
 H,0,-6.44757431,55.69817754,108.65554772
 H,0,-8.92966584,57.16293345,111.6447021
 H,0,-8.47703616,61.47303368,115.04846439
 H,0,-9.81819471,61.02643021,114.02137835
 H,0,-9.14761543,59.86203563,115.13832749
 H,0,-8.42477212,64.08300091,112.18256908
 H,0,-9.74325724,62.79545327,112.37882928
 H,0,-7.30480636,62.28163653,110.74441781
 H,0,-5.99760269,61.11670074,110.07415189
 H,0,-3.29125105,61.12135216,107.50202499
 H,0,-5.03415292,61.23551722,107.45379539
 H,0,-4.16270198,61.7673059,108.87183655
 H,0,-1.30666668,58.80008259,105.78338924
 H,0,-2.9660696,59.62481928,105.8132444
 H,0,-2.10950113,57.22809341,107.5010734
 H,0,-3.00493131,55.8547559,108.35381376
 H,0,-2.07770052,52.67820197,108.89566761
 H,0,-3.65773385,52.32595592,108.23803241
 H,0,-2.86771719,53.83599136,107.8523728
 H,0,-4.13470648,51.0890761,110.34845325
 H,0,-5.09898196,51.36890342,111.77047662
 H,0,-2.11413607,51.41183062,111.59899845
 H,0,-3.01659566,51.85485271,113.01287259
 H,0,-3.57066867,57.92866188,112.862
 H,0,-5.12406459,58.13975691,112.862
 H,0,-7.52743218,52.99509964,116.1893342
 H,0,-6.54208858,52.42010505,114.88534824
 H,0,-4.56411051,53.19346777,116.04761721
 H,0,-5.56200633,53.74079509,117.36224034
 H,0,-3.56332963,51.1294171,117.04543081
 H,0,-7.6910114,56.54435544,117.32841945
 H,0,-9.15708263,56.39154393,116.39014951
 H,0,-8.42404701,54.97441953,117.10252855
 H,0,-5.45781913,52.93038165,113.32659478
 H,0,-8.08069943,58.29811494,115.25520946
 H,0,-3.01035017,48.29644599,111.42577153
 Recover connectivity data from disk.
 Stoichiometry    C37H38FeN6O5(1+,6)
 Framework group  C1[X(C37H38FeN6O5)]
 Deg. of freedom   255
 Full point group                 C1      NOp   1
 Largest Abelian subgroup         C1      NOp   1
 Largest concise Abelian subgroup C1      NOp   1
                         Standard orientation:                         
 ---------------------------------------------------------------------
 Center     Atomic      Atomic             Coordinates (Angstroms)
 Number     Number       Type             X           Y           Z
 ---------------------------------------------------------------------
      1          6           0       -2.347125   -0.118396    0.266940
      2          6           0        1.032194   -3.442471   -0.232027
      3          6           0        4.275182    0.005496   -0.641394
      4          6           0        0.830362    3.328305   -0.394087
      5          6           0       -1.729458   -1.358472    0.171965
      6          6           0       -2.412739   -2.562007    0.162091
      7          6           0       -1.422406   -3.560337    0.041847
      8          6           0       -0.224284   -2.864462   -0.063560
      9          6           0       -1.613800   -5.082680    0.078513
     10          6           0       -3.937964   -2.694353    0.257386
     11          6           0       -4.688401   -2.763664   -1.038349
     12          6           0       -6.211037   -2.869786   -0.859397
     13          8           0       -6.711277   -3.895741   -0.394219
     14          8           0       -6.948730   -1.940814   -1.190766
     15          6           0        2.270839   -2.794451   -0.296754
     16          6           0        3.497948   -3.460056   -0.339653
     17          6           0        4.446935   -2.447990   -0.383850
     18          6           0        3.720421   -1.254340   -0.437084
     19          6           0        3.646563   -4.971920   -0.197434
     20          6           0        5.851584   -2.474407   -0.347923
     21          6           0        6.727707   -3.604065   -0.186895
     22          6           0        3.632690    1.249217   -0.689602
     23          6           0        4.271535    2.452891   -0.980752
     24          6           0        3.226112    3.397974   -0.972701
     25          6           0        2.075418    2.713403   -0.612078
     26          6           0        5.770182    2.624982   -1.340702
     27          6           0        3.199991    4.783928   -1.198846
     28          6           0        4.299397    5.698136   -1.274909
     29          6           0       -0.378363    2.728224   -0.100626
     30          6           0       -1.546122    3.392460    0.215689
     31          6           0       -2.479160    2.363206    0.386050
     32          6           0       -1.799967    1.170766    0.186393
     33          6           0       -1.739767    4.890045    0.472621
     34          6           0       -3.938533    2.514034    0.798953
     35          6           0       -4.877845    2.571364   -0.392311
     36          6           0       -6.349898    2.583826   -0.058214
     37          8           0       -7.128233    2.125592   -0.887203
     38          8           0       -6.737399    3.050903    1.010484
     39          7           0       -0.412049   -1.545883    0.032290
     40          7           0        2.415914   -1.473068   -0.268700
     41          7           0        2.310920    1.410121   -0.475905
     42          7           0       -0.533349    1.405621   -0.074350
     43         26           0        0.953183   -0.034102    0.003887
     44          7           0        2.276907   -0.277308    3.728347
     45          6           0        1.739951   -0.785012    2.659426
     46          7           0        1.249957    0.204439    1.964542
     47          6           0        1.475700    1.318734    2.588883
     48          6           0        2.151214    1.017798    3.755969
     49          1           0        2.783842   -0.783995    4.378264
     50          8           0        0.649681   -0.381031   -1.927989
     51          1           0        2.493080    1.695089    4.510491
     52          1           0        1.190018    2.295773    2.259216
     53          1           0        1.706009   -1.821978    2.397798
     54          1           0        4.036987   -5.379027   -1.106683
     55          1           0        4.316568   -5.190269    0.607748
     56          1           0        2.690355   -5.406696    0.006369
     57          1           0        7.545125   -3.747698   -0.862245
     58          1           0        6.561914   -4.300635    0.608216
     59          1           0        6.334902   -1.525789   -0.454819
     60          1           0        5.335890    0.026968   -0.780450
     61          1           0        5.911760    3.560275   -1.840784
     62          1           0        6.356326    2.606751   -0.445715
     63          1           0        6.076446    1.826653   -1.983954
     64          1           0        4.195806    6.615671   -1.815556
     65          1           0        5.224549    5.463761   -0.791110
     66          1           0        2.229263    5.213871   -1.332024
     67          1           0        0.817472    4.395915   -0.464378
     68          1           0       -2.406652    5.294310   -0.260000
     69          1           0       -2.152999    5.033893    1.449067
     70          1           0       -0.794918    5.388062    0.408275
     71          1           0       -4.045595    3.414449    1.367012
     72          1           0       -4.211252    1.682223    1.414270
     73          1           0       -4.654454    3.455456   -0.952114
     74          1           0       -4.682963    1.721900   -1.013063
     75          1           0        0.886715   -0.024905   -2.787401
     76          1           0        1.362297   -0.936939   -1.604347
     77          1           0       -4.158022   -3.581327    0.813940
     78          1           0       -4.308133   -1.855251    0.808549
     79          1           0       -4.471352   -1.883521   -1.606801
     80          1           0       -4.347969   -3.617857   -1.585488
     81          1           0       -6.909489   -1.591975   -2.084283
     82          1           0       -1.445035   -5.486987   -0.897681
     83          1           0       -0.917970   -5.513132    0.768028
     84          1           0       -2.611831   -5.309261    0.390754
     85          1           0       -3.404677   -0.151315    0.426314
     86          1           0        1.052471   -4.508431   -0.322680
     87          1           0       -7.188037    3.898366    1.028699
 ---------------------------------------------------------------------
 Rotational constants (GHZ):           0.0821145           0.0475077           0.0339279
 Standard basis: def2TZVP (5D, 7F)
 There are  2008 symmetry adapted cartesian basis functions of A   symmetry.
 There are  1761 symmetry adapted basis functions of A   symmetry.
  1761 basis functions,  2854 primitive gaussians,  2008 cartesian basis functions
   186 alpha electrons      181 beta electrons
       nuclear repulsion energy      7372.7539489848 Hartrees.
 NAtoms=   87 NActive=   87 NUniq=   87 SFac= 1.00D+00 NAtFMM=   60 NAOKFM=T Big=T
 Integral buffers will be    131072 words long.
 Raffenetti 2 integral format.
 Two-electron integral symmetry is turned on.
 Nuclear repulsion after empirical dispersion term =     7372.6319724319 Hartrees.
 One-electron integrals computed using PRISM.
   1 Symmetry operations used in ECPInt.
 ECPInt:  NShTT=  241860 NPrTT=  750929 LenC2=  176505 LenP2D=  356554.
 LDataN:  DoStor=T MaxTD1= 6 Len=  172
 NBasis=  1761 RedAO= T EigKep=  2.72D-06  NBF=  1761
 NBsUse=  1761 1.00D-06 EigRej= -1.00D+00 NBFU=  1761
 ExpMin= 4.20D-02 ExpMax= 3.01D+05 ExpMxC= 2.91D+03 IAcc=3 IRadAn=         5 AccDes= 0.00D+00
 Harris functional with IExCor= 1009 and IRadAn=       5 diagonalized for initial guess.
 HarFok:  IExCor= 1009 AccDes= 0.00D+00 IRadAn=         5 IDoV= 1 UseB2=F ITyADJ=14
 ICtDFT=  3500011 ScaDFX=  1.000000  1.000000  1.000000  1.000000
 FoFCou: FMM=F IPFlag=           0 FMFlag=      100000 FMFlg1=        2001
         NFxFlg=           0 DoJE=T BraDBF=F KetDBF=T FulRan=T
         wScrn=  0.000000 ICntrl=       500 IOpCl=  0 I1Cent=   200000004 NGrid=           0
         NMat0=    1 NMatS0=      1 NMatT0=    0 NMatD0=    1 NMtDS0=    0 NMtDT0=    0
 Petite list used in FoFCou.
 Initial guess <Sx>= 0.0000 <Sy>= 0.0000 <Sz>= 2.5000 <S**2>= 8.7500 S= 2.5000
 Requested convergence on RMS density matrix=1.00D-08 within 128 cycles.
 Requested convergence on MAX density matrix=1.00D-06.
 Requested convergence on             energy=1.00D-06.
 No special actions if energy rises.
 EnCoef did   100 forward-backward iterations
 EnCoef did   100 forward-backward iterations
 EnCoef did    15 forward-backward iterations
 EnCoef did    11 forward-backward iterations
 EnCoef did    15 forward-backward iterations
 EnCoef did   100 forward-backward iterations
 EnCoef did     5 forward-backward iterations
 EnCoef did     3 forward-backward iterations
 Restarting incremental Fock formation.
 Restarting incremental Fock formation.
 SCF Done:  E(UPBE1PBE) =  -3399.12135768     A.U. after   42 cycles
            NFock= 42  Conv=0.65D-08     -V/T= 2.0024
 <Sx>= 0.0000 <Sy>= 0.0000 <Sz>= 2.5000 <S**2>= 8.7642 S= 2.5024
 <L.S>= 0.000000000000E+00
 Annihilation of the first spin contaminant:
 S**2 before annihilation     8.7642,   after     8.7501

 **********************************************************************

            Population analysis using the SCF density.

 **********************************************************************

 Orbital symmetries:
 Alpha Orbitals:
       Occupied  (A) (A) (A) (A) (A) (A) (A) (A) (A) (A) (A) (A)
                 (A) (A) (A) (A) (A) (A) (A) (A) (A) (A) (A) (A)
                 (A) (A) (A) (A) (A) (A) (A) (A) (A) (A) (A) (A)
                 (A) (A) (A) (A) (A) (A) (A) (A) (A) (A) (A) (A)
                 (A) (A) (A) (A) (A) (A) (A) (A) (A) (A) (A) (A)
                 (A) (A) (A) (A) (A) (A) (A) (A) (A) (A) (A) (A)
                 (A) (A) (A) (A) (A) (A) (A) (A) (A) (A) (A) (A)
                 (A) (A) (A) (A) (A) (A) (A) (A) (A) (A) (A) (A)
                 (A) (A) (A) (A) (A) (A) (A) (A) (A) (A) (A) (A)
                 (A) (A) (A) (A) (A) (A) (A) (A) (A) (A) (A) (A)
                 (A) (A) (A) (A) (A) (A) (A) (A) (A) (A) (A) (A)
                 (A) (A) (A) (A) (A) (A) (A) (A) (A) (A) (A) (A)
                 (A) (A) (A) (A) (A) (A) (A) (A) (A) (A) (A) (A)
                 (A) (A) (A) (A) (A) (A) (A) (A) (A) (A) (A) (A)
                 (A) (A) (A) (A) (A) (A) (A) (A) (A) (A) (A) (A)
                 (A) (A) (A) (A) (A) (A)
       Virtual   (A) (A) (A) (A) (A) (A) (A) (A) (A) (A) (A) (A)
                 (A) (A) (A) (A) (A) (A) (A) (A) (A) (A) (A) (A)
                 (A) (A) (A) (A) (A) (A) (A) (A) (A) (A) (A) (A)
                 (A) (A) (A) (A) (A) (A) (A) (A) (A) (A) (A) (A)
                 (A) (A) (A) (A) (A) (A) (A) (A) (A) (A) (A) (A)
                 (A) (A) (A) (A) (A) (A) (A) (A) (A) (A) (A) (A)
                 (A) (A) (A) (A) (A) (A) (A) (A) (A) (A) (A) (A)
                 (A) (A) (A) (A) (A) (A) (A) (A) (A) (A) (A) (A)
                 (A) (A) (A) (A) (A) (A) (A) (A) (A) (A) (A) (A)
                 (A) (A) (A) (A) (A) (A) (A) (A) (A) (A) (A) (A)
                 (A) (A) (A) (A) (A) (A) (A) (A) (A) (A) (A) (A)
                 (A) (A) (A) (A) (A) (A) (A) (A) (A) (A) (A) (A)
                 (A) (A) (A) (A) (A) (A) (A) (A) (A) (A) (A) (A)
                 (A) (A) (A) (A) (A) (A) (A) (A) (A) (A) (A) (A)
                 (A) (A) (A) (A) (A) (A) (A) (A) (A) (A) (A) (A)
                 (A) (A) (A) (A) (A) (A) (A) (A) (A) (A) (A) (A)
                 (A) (A) (A) (A) (A) (A) (A) (A) (A) (A) (A) (A)
                 (A) (A) (A) (A) (A) (A) (A) (A) (A) (A) (A) (A)
                 (A) (A) (A) (A) (A) (A) (A) (A) (A) (A) (A) (A)
                 (A) (A) (A) (A) (A) (A) (A) (A) (A) (A) (A) (A)
                 (A) (A) (A) (A) (A) (A) (A) (A) (A) (A) (A) (A)
                 (A) (A) (A) (A) (A) (A) (A) (A) (A) (A) (A) (A)
                 (A) (A) (A) (A) (A) (A) (A) (A) (A) (A) (A) (A)
                 (A) (A) (A) (A) (A) (A) (A) (A) (A) (A) (A) (A)
                 (A) (A) (A) (A) (A) (A) (A) (A) (A) (A) (A) (A)
                 (A) (A) (A) (A) (A) (A) (A) (A) (A) (A) (A) (A)
                 (A) (A) (A) (A) (A) (A) (A) (A) (A) (A) (A) (A)
                 (A) (A) (A) (A) (A) (A) (A) (A) (A) (A) (A) (A)
                 (A) (A) (A) (A) (A) (A) (A) (A) (A) (A) (A) (A)
                 (A) (A) (A) (A) (A) (A) (A) (A) (A) (A) (A) (A)
                 (A) (A) (A) (A) (A) (A) (A) (A) (A) (A) (A) (A)
                 (A) (A) (A) (A) (A) (A) (A) (A) (A) (A) (A) (A)
                 (A) (A) (A) (A) (A) (A) (A) (A) (A) (A) (A) (A)
                 (A) (A) (A) (A) (A) (A) (A) (A) (A) (A) (A) (A)
                 (A) (A) (A) (A) (A) (A) (A) (A) (A) (A) (A) (A)
                 (A) (A) (A) (A) (A) (A) (A) (A) (A) (A) (A) (A)
                 (A) (A) (A) (A) (A) (A) (A) (A) (A) (A) (A) (A)
                 (A) (A) (A) (A) (A) (A) (A) (A) (A) (A) (A) (A)
                 (A) (A) (A) (A) (A) (A) (A) (A) (A) (A) (A) (A)
                 (A) (A) (A) (A) (A) (A) (A) (A) (A) (A) (A) (A)
                 (A) (A) (A) (A) (A) (A) (A) (A) (A) (A) (A) (A)
                 (A) (A) (A) (A) (A) (A) (A) (A) (A) (A) (A) (A)
                 (A) (A) (A) (A) (A) (A) (A) (A) (A) (A) (A) (A)
                 (A) (A) (A) (A) (A) (A) (A) (A) (A) (A) (A) (A)
                 (A) (A) (A) (A) (A) (A) (A) (A) (A) (A) (A) (A)
                 (A) (A) (A) (A) (A) (A) (A) (A) (A) (A) (A) (A)
                 (A) (A) (A) (A) (A) (A) (A) (A) (A) (A) (A) (A)
                 (A) (A) (A) (A) (A) (A) (A) (A) (A) (A) (A) (A)
                 (A) (A) (A) (A) (A) (A) (A) (A) (A) (A) (A) (A)
                 (A) (A) (A) (A) (A) (A) (A) (A) (A) (A) (A) (A)
                 (A) (A) (A) (A) (A) (A) (A) (A) (A) (A) (A) (A)
                 (A) (A) (A) (A) (A) (A) (A) (A) (A) (A) (A) (A)
                 (A) (A) (A) (A) (A) (A) (A) (A) (A) (A) (A) (A)
                 (A) (A) (A) (A) (A) (A) (A) (A) (A) (A) (A) (A)
                 (A) (A) (A) (A) (A) (A) (A) (A) (A) (A) (A) (A)
                 (A) (A) (A) (A) (A) (A) (A) (A) (A) (A) (A) (A)
                 (A) (A) (A) (A) (A) (A) (A) (A) (A) (A) (A) (A)
                 (A) (A) (A) (A) (A) (A) (A) (A) (A) (A) (A) (A)
                 (A) (A) (A) (A) (A) (A) (A) (A) (A) (A) (A) (A)
                 (A) (A) (A) (A) (A) (A) (A) (A) (A) (A) (A) (A)
                 (A) (A) (A) (A) (A) (A) (A) (A) (A) (A) (A) (A)
                 (A) (A) (A) (A) (A) (A) (A) (A) (A) (A) (A) (A)
                 (A) (A) (A) (A) (A) (A) (A) (A) (A) (A) (A) (A)
                 (A) (A) (A) (A) (A) (A) (A) (A) (A) (A) (A) (A)
                 (A) (A) (A) (A) (A) (A) (A) (A) (A) (A) (A) (A)
                 (A) (A) (A) (A) (A) (A) (A) (A) (A) (A) (A) (A)
                 (A) (A) (A) (A) (A) (A) (A) (A) (A) (A) (A) (A)
                 (A) (A) (A) (A) (A) (A) (A) (A) (A) (A) (A) (A)
                 (A) (A) (A) (A) (A) (A) (A) (A) (A) (A) (A) (A)
                 (A) (A) (A) (A) (A) (A) (A) (A) (A) (A) (A) (A)
                 (A) (A) (A) (A) (A) (A) (A) (A) (A) (A) (A) (A)
                 (A) (A) (A) (A) (A) (A) (A) (A) (A) (A) (A) (A)
                 (A) (A) (A) (A) (A) (A) (A) (A) (A) (A) (A) (A)
                 (A) (A) (A) (A) (A) (A) (A) (A) (A) (A) (A) (A)
                 (A) (A) (A) (A) (A) (A) (A) (A) (A) (A) (A) (A)
                 (A) (A) (A) (A) (A) (A) (A) (A) (A) (A) (A) (A)
                 (A) (A) (A) (A) (A) (A) (A) (A) (A) (A) (A) (A)
                 (A) (A) (A) (A) (A) (A) (A) (A) (A) (A) (A) (A)
                 (A) (A) (A) (A) (A) (A) (A) (A) (A) (A) (A) (A)
                 (A) (A) (A) (A) (A) (A) (A) (A) (A) (A) (A) (A)
                 (A) (A) (A) (A) (A) (A) (A) (A) (A) (A) (A) (A)
                 (A) (A) (A) (A) (A) (A) (A) (A) (A) (A) (A) (A)
                 (A) (A) (A) (A) (A) (A) (A) (A) (A) (A) (A) (A)
                 (A) (A) (A) (A) (A) (A) (A) (A) (A) (A) (A) (A)
                 (A) (A) (A) (A) (A) (A) (A) (A) (A) (A) (A) (A)
                 (A) (A) (A) (A) (A) (A) (A) (A) (A) (A) (A) (A)
                 (A) (A) (A) (A) (A) (A) (A) (A) (A) (A) (A) (A)
                 (A) (A) (A) (A) (A) (A) (A) (A) (A) (A) (A) (A)
                 (A) (A) (A) (A) (A) (A) (A) (A) (A) (A) (A) (A)
                 (A) (A) (A) (A) (A) (A) (A) (A) (A) (A) (A) (A)
                 (A) (A) (A) (A) (A) (A) (A) (A) (A) (A) (A) (A)
                 (A) (A) (A) (A) (A) (A) (A) (A) (A) (A) (A) (A)
                 (A) (A) (A) (A) (A) (A) (A) (A) (A) (A) (A) (A)
                 (A) (A) (A) (A) (A) (A) (A) (A) (A) (A) (A) (A)
                 (A) (A) (A) (A) (A) (A) (A) (A) (A) (A) (A) (A)
                 (A) (A) (A) (A) (A) (A) (A) (A) (A) (A) (A) (A)
                 (A) (A) (A) (A) (A) (A) (A) (A) (A) (A) (A) (A)
                 (A) (A) (A) (A) (A) (A) (A) (A) (A) (A) (A) (A)
                 (A) (A) (A) (A) (A) (A) (A) (A) (A) (A) (A) (A)
                 (A) (A) (A) (A) (A) (A) (A) (A) (A) (A) (A) (A)
                 (A) (A) (A) (A) (A) (A) (A) (A) (A) (A) (A) (A)
                 (A) (A) (A) (A) (A) (A) (A) (A) (A) (A) (A) (A)
                 (A) (A) (A) (A) (A) (A) (A) (A) (A) (A) (A) (A)
                 (A) (A) (A) (A) (A) (A) (A) (A) (A) (A) (A) (A)
                 (A) (A) (A) (A) (A) (A) (A) (A) (A) (A) (A) (A)
                 (A) (A) (A) (A) (A) (A) (A) (A) (A) (A) (A) (A)
                 (A) (A) (A) (A) (A) (A) (A) (A) (A) (A) (A) (A)
                 (A) (A) (A) (A) (A) (A) (A) (A) (A) (A) (A) (A)
                 (A) (A) (A) (A) (A) (A) (A) (A) (A) (A) (A) (A)
                 (A) (A) (A) (A) (A) (A) (A) (A) (A) (A) (A) (A)
                 (A) (A) (A) (A) (A) (A) (A) (A) (A) (A) (A) (A)
                 (A) (A) (A) (A) (A) (A) (A) (A) (A) (A) (A) (A)
                 (A) (A) (A) (A) (A) (A) (A) (A) (A) (A) (A) (A)
                 (A) (A) (A) (A) (A) (A) (A) (A) (A) (A) (A) (A)
                 (A) (A) (A) (A) (A) (A) (A) (A) (A) (A) (A) (A)
                 (A) (A) (A) (A) (A) (A) (A) (A) (A) (A) (A) (A)
                 (A) (A) (A) (A) (A) (A) (A) (A) (A) (A) (A) (A)
                 (A) (A) (A) (A) (A) (A) (A) (A) (A) (A) (A) (A)
                 (A) (A) (A) (A) (A) (A) (A) (A) (A) (A) (A) (A)
                 (A) (A) (A) (A) (A) (A) (A) (A) (A) (A) (A) (A)
                 (A) (A) (A) (A) (A) (A) (A) (A) (A) (A) (A) (A)
                 (A) (A) (A) (A) (A) (A) (A) (A) (A) (A) (A) (A)
                 (A) (A) (A) (A) (A) (A) (A) (A) (A) (A) (A) (A)
                 (A) (A) (A) (A) (A) (A) (A) (A) (A) (A) (A) (A)
                 (A) (A) (A) (A) (A) (A) (A) (A) (A) (A) (A) (A)
                 (A) (A) (A) (A) (A) (A) (A) (A) (A) (A) (A) (A)
                 (A) (A) (A) (A) (A) (A) (A) (A) (A) (A) (A) (A)
                 (A) (A) (A) (A) (A) (A) (A) (A) (A) (A) (A) (A)
                 (A) (A) (A) (A) (A) (A) (A) (A) (A) (A) (A) (A)
                 (A) (A) (A) (A) (A) (A) (A) (A) (A) (A) (A) (A)
                 (A) (A) (A) (A) (A) (A) (A) (A) (A) (A) (A) (A)
                 (A) (A) (A)
 Beta  Orbitals:
       Occupied  (A) (A) (A) (A) (A) (A) (A) (A) (A) (A) (A) (A)
                 (A) (A) (A) (A) (A) (A) (A) (A) (A) (A) (A) (A)
                 (A) (A) (A) (A) (A) (A) (A) (A) (A) (A) (A) (A)
                 (A) (A) (A) (A) (A) (A) (A) (A) (A) (A) (A) (A)
                 (A) (A) (A) (A) (A) (A) (A) (A) (A) (A) (A) (A)
                 (A) (A) (A) (A) (A) (A) (A) (A) (A) (A) (A) (A)
                 (A) (A) (A) (A) (A) (A) (A) (A) (A) (A) (A) (A)
                 (A) (A) (A) (A) (A) (A) (A) (A) (A) (A) (A) (A)
                 (A) (A) (A) (A) (A) (A) (A) (A) (A) (A) (A) (A)
                 (A) (A) (A) (A) (A) (A) (A) (A) (A) (A) (A) (A)
                 (A) (A) (A) (A) (A) (A) (A) (A) (A) (A) (A) (A)
                 (A) (A) (A) (A) (A) (A) (A) (A) (A) (A) (A) (A)
                 (A) (A) (A) (A) (A) (A) (A) (A) (A) (A) (A) (A)
                 (A) (A) (A) (A) (A) (A) (A) (A) (A) (A) (A) (A)
                 (A) (A) (A) (A) (A) (A) (A) (A) (A) (A) (A) (A)
                 (A)
       Virtual   (A) (A) (A) (A) (A) (A) (A) (A) (A) (A) (A) (A)
                 (A) (A) (A) (A) (A) (A) (A) (A) (A) (A) (A) (A)
                 (A) (A) (A) (A) (A) (A) (A) (A) (A) (A) (A) (A)
                 (A) (A) (A) (A) (A) (A) (A) (A) (A) (A) (A) (A)
                 (A) (A) (A) (A) (A) (A) (A) (A) (A) (A) (A) (A)
                 (A) (A) (A) (A) (A) (A) (A) (A) (A) (A) (A) (A)
                 (A) (A) (A) (A) (A) (A) (A) (A) (A) (A) (A) (A)
                 (A) (A) (A) (A) (A) (A) (A) (A) (A) (A) (A) (A)
                 (A) (A) (A) (A) (A) (A) (A) (A) (A) (A) (A) (A)
                 (A) (A) (A) (A) (A) (A) (A) (A) (A) (A) (A) (A)
                 (A) (A) (A) (A) (A) (A) (A) (A) (A) (A) (A) (A)
                 (A) (A) (A) (A) (A) (A) (A) (A) (A) (A) (A) (A)
                 (A) (A) (A) (A) (A) (A) (A) (A) (A) (A) (A) (A)
                 (A) (A) (A) (A) (A) (A) (A) (A) (A) (A) (A) (A)
                 (A) (A) (A) (A) (A) (A) (A) (A) (A) (A) (A) (A)
                 (A) (A) (A) (A) (A) (A) (A) (A) (A) (A) (A) (A)
                 (A) (A) (A) (A) (A) (A) (A) (A) (A) (A) (A) (A)
                 (A) (A) (A) (A) (A) (A) (A) (A) (A) (A) (A) (A)
                 (A) (A) (A) (A) (A) (A) (A) (A) (A) (A) (A) (A)
                 (A) (A) (A) (A) (A) (A) (A) (A) (A) (A) (A) (A)
                 (A) (A) (A) (A) (A) (A) (A) (A) (A) (A) (A) (A)
                 (A) (A) (A) (A) (A) (A) (A) (A) (A) (A) (A) (A)
                 (A) (A) (A) (A) (A) (A) (A) (A) (A) (A) (A) (A)
                 (A) (A) (A) (A) (A) (A) (A) (A) (A) (A) (A) (A)
                 (A) (A) (A) (A) (A) (A) (A) (A) (A) (A) (A) (A)
                 (A) (A) (A) (A) (A) (A) (A) (A) (A) (A) (A) (A)
                 (A) (A) (A) (A) (A) (A) (A) (A) (A) (A) (A) (A)
                 (A) (A) (A) (A) (A) (A) (A) (A) (A) (A) (A) (A)
                 (A) (A) (A) (A) (A) (A) (A) (A) (A) (A) (A) (A)
                 (A) (A) (A) (A) (A) (A) (A) (A) (A) (A) (A) (A)
                 (A) (A) (A) (A) (A) (A) (A) (A) (A) (A) (A) (A)
                 (A) (A) (A) (A) (A) (A) (A) (A) (A) (A) (A) (A)
                 (A) (A) (A) (A) (A) (A) (A) (A) (A) (A) (A) (A)
                 (A) (A) (A) (A) (A) (A) (A) (A) (A) (A) (A) (A)
                 (A) (A) (A) (A) (A) (A) (A) (A) (A) (A) (A) (A)
                 (A) (A) (A) (A) (A) (A) (A) (A) (A) (A) (A) (A)
                 (A) (A) (A) (A) (A) (A) (A) (A) (A) (A) (A) (A)
                 (A) (A) (A) (A) (A) (A) (A) (A) (A) (A) (A) (A)
                 (A) (A) (A) (A) (A) (A) (A) (A) (A) (A) (A) (A)
                 (A) (A) (A) (A) (A) (A) (A) (A) (A) (A) (A) (A)
                 (A) (A) (A) (A) (A) (A) (A) (A) (A) (A) (A) (A)
                 (A) (A) (A) (A) (A) (A) (A) (A) (A) (A) (A) (A)
                 (A) (A) (A) (A) (A) (A) (A) (A) (A) (A) (A) (A)
                 (A) (A) (A) (A) (A) (A) (A) (A) (A) (A) (A) (A)
                 (A) (A) (A) (A) (A) (A) (A) (A) (A) (A) (A) (A)
                 (A) (A) (A) (A) (A) (A) (A) (A) (A) (A) (A) (A)
                 (A) (A) (A) (A) (A) (A) (A) (A) (A) (A) (A) (A)
                 (A) (A) (A) (A) (A) (A) (A) (A) (A) (A) (A) (A)
                 (A) (A) (A) (A) (A) (A) (A) (A) (A) (A) (A) (A)
                 (A) (A) (A) (A) (A) (A) (A) (A) (A) (A) (A) (A)
                 (A) (A) (A) (A) (A) (A) (A) (A) (A) (A) (A) (A)
                 (A) (A) (A) (A) (A) (A) (A) (A) (A) (A) (A) (A)
                 (A) (A) (A) (A) (A) (A) (A) (A) (A) (A) (A) (A)
                 (A) (A) (A) (A) (A) (A) (A) (A) (A) (A) (A) (A)
                 (A) (A) (A) (A) (A) (A) (A) (A) (A) (A) (A) (A)
                 (A) (A) (A) (A) (A) (A) (A) (A) (A) (A) (A) (A)
                 (A) (A) (A) (A) (A) (A) (A) (A) (A) (A) (A) (A)
                 (A) (A) (A) (A) (A) (A) (A) (A) (A) (A) (A) (A)
                 (A) (A) (A) (A) (A) (A) (A) (A) (A) (A) (A) (A)
                 (A) (A) (A) (A) (A) (A) (A) (A) (A) (A) (A) (A)
                 (A) (A) (A) (A) (A) (A) (A) (A) (A) (A) (A) (A)
                 (A) (A) (A) (A) (A) (A) (A) (A) (A) (A) (A) (A)
                 (A) (A) (A) (A) (A) (A) (A) (A) (A) (A) (A) (A)
                 (A) (A) (A) (A) (A) (A) (A) (A) (A) (A) (A) (A)
                 (A) (A) (A) (A) (A) (A) (A) (A) (A) (A) (A) (A)
                 (A) (A) (A) (A) (A) (A) (A) (A) (A) (A) (A) (A)
                 (A) (A) (A) (A) (A) (A) (A) (A) (A) (A) (A) (A)
                 (A) (A) (A) (A) (A) (A) (A) (A) (A) (A) (A) (A)
                 (A) (A) (A) (A) (A) (A) (A) (A) (A) (A) (A) (A)
                 (A) (A) (A) (A) (A) (A) (A) (A) (A) (A) (A) (A)
                 (A) (A) (A) (A) (A) (A) (A) (A) (A) (A) (A) (A)
                 (A) (A) (A) (A) (A) (A) (A) (A) (A) (A) (A) (A)
                 (A) (A) (A) (A) (A) (A) (A) (A) (A) (A) (A) (A)
                 (A) (A) (A) (A) (A) (A) (A) (A) (A) (A) (A) (A)
                 (A) (A) (A) (A) (A) (A) (A) (A) (A) (A) (A) (A)
                 (A) (A) (A) (A) (A) (A) (A) (A) (A) (A) (A) (A)
                 (A) (A) (A) (A) (A) (A) (A) (A) (A) (A) (A) (A)
                 (A) (A) (A) (A) (A) (A) (A) (A) (A) (A) (A) (A)
                 (A) (A) (A) (A) (A) (A) (A) (A) (A) (A) (A) (A)
                 (A) (A) (A) (A) (A) (A) (A) (A) (A) (A) (A) (A)
                 (A) (A) (A) (A) (A) (A) (A) (A) (A) (A) (A) (A)
                 (A) (A) (A) (A) (A) (A) (A) (A) (A) (A) (A) (A)
                 (A) (A) (A) (A) (A) (A) (A) (A) (A) (A) (A) (A)
                 (A) (A) (A) (A) (A) (A) (A) (A) (A) (A) (A) (A)
                 (A) (A) (A) (A) (A) (A) (A) (A) (A) (A) (A) (A)
                 (A) (A) (A) (A) (A) (A) (A) (A) (A) (A) (A) (A)
                 (A) (A) (A) (A) (A) (A) (A) (A) (A) (A) (A) (A)
                 (A) (A) (A) (A) (A) (A) (A) (A) (A) (A) (A) (A)
                 (A) (A) (A) (A) (A) (A) (A) (A) (A) (A) (A) (A)
                 (A) (A) (A) (A) (A) (A) (A) (A) (A) (A) (A) (A)
                 (A) (A) (A) (A) (A) (A) (A) (A) (A) (A) (A) (A)
                 (A) (A) (A) (A) (A) (A) (A) (A) (A) (A) (A) (A)
                 (A) (A) (A) (A) (A) (A) (A) (A) (A) (A) (A) (A)
                 (A) (A) (A) (A) (A) (A) (A) (A) (A) (A) (A) (A)
                 (A) (A) (A) (A) (A) (A) (A) (A) (A) (A) (A) (A)
                 (A) (A) (A) (A) (A) (A) (A) (A) (A) (A) (A) (A)
                 (A) (A) (A) (A) (A) (A) (A) (A) (A) (A) (A) (A)
                 (A) (A) (A) (A) (A) (A) (A) (A) (A) (A) (A) (A)
                 (A) (A) (A) (A) (A) (A) (A) (A) (A) (A) (A) (A)
                 (A) (A) (A) (A) (A) (A) (A) (A) (A) (A) (A) (A)
                 (A) (A) (A) (A) (A) (A) (A) (A) (A) (A) (A) (A)
                 (A) (A) (A) (A) (A) (A) (A) (A) (A) (A) (A) (A)
                 (A) (A) (A) (A) (A) (A) (A) (A) (A) (A) (A) (A)
                 (A) (A) (A) (A) (A) (A) (A) (A) (A) (A) (A) (A)
                 (A) (A) (A) (A) (A) (A) (A) (A) (A) (A) (A) (A)
                 (A) (A) (A) (A) (A) (A) (A) (A) (A) (A) (A) (A)
                 (A) (A) (A) (A) (A) (A) (A) (A) (A) (A) (A) (A)
                 (A) (A) (A) (A) (A) (A) (A) (A) (A) (A) (A) (A)
                 (A) (A) (A) (A) (A) (A) (A) (A) (A) (A) (A) (A)
                 (A) (A) (A) (A) (A) (A) (A) (A) (A) (A) (A) (A)
                 (A) (A) (A) (A) (A) (A) (A) (A) (A) (A) (A) (A)
                 (A) (A) (A) (A) (A) (A) (A) (A) (A) (A) (A) (A)
                 (A) (A) (A) (A) (A) (A) (A) (A) (A) (A) (A) (A)
                 (A) (A) (A) (A) (A) (A) (A) (A) (A) (A) (A) (A)
                 (A) (A) (A) (A) (A) (A) (A) (A) (A) (A) (A) (A)
                 (A) (A) (A) (A) (A) (A) (A) (A) (A) (A) (A) (A)
                 (A) (A) (A) (A) (A) (A) (A) (A) (A) (A) (A) (A)
                 (A) (A) (A) (A) (A) (A) (A) (A) (A) (A) (A) (A)
                 (A) (A) (A) (A) (A) (A) (A) (A) (A) (A) (A) (A)
                 (A) (A) (A) (A) (A) (A) (A) (A) (A) (A) (A) (A)
                 (A) (A) (A) (A) (A) (A) (A) (A) (A) (A) (A) (A)
                 (A) (A) (A) (A) (A) (A) (A) (A) (A) (A) (A) (A)
                 (A) (A) (A) (A) (A) (A) (A) (A) (A) (A) (A) (A)
                 (A) (A) (A) (A) (A) (A) (A) (A) (A) (A) (A) (A)
                 (A) (A) (A) (A) (A) (A) (A) (A) (A) (A) (A) (A)
                 (A) (A) (A) (A) (A) (A) (A) (A) (A) (A) (A) (A)
                 (A) (A) (A) (A) (A) (A) (A) (A) (A) (A) (A) (A)
                 (A) (A) (A) (A) (A) (A) (A) (A) (A) (A) (A) (A)
                 (A) (A) (A) (A) (A) (A) (A) (A) (A) (A) (A) (A)
                 (A) (A) (A) (A) (A) (A) (A) (A) (A) (A) (A) (A)
                 (A) (A) (A) (A) (A) (A) (A) (A) (A) (A) (A) (A)
                 (A) (A) (A) (A) (A) (A) (A) (A)
 The electronic state is 6-A.
 Alpha  occ. eigenvalues -- -256.57358 -30.40075 -26.21771 -26.21709 -26.21647
 Alpha  occ. eigenvalues --  -19.33833 -19.32540 -19.31735 -19.24823 -19.23609
 Alpha  occ. eigenvalues --  -14.57560 -14.52177 -14.49472 -14.48381 -14.47670
 Alpha  occ. eigenvalues --  -14.47395 -10.41950 -10.41080 -10.40595 -10.37035
 Alpha  occ. eigenvalues --  -10.36296 -10.36127 -10.35987 -10.35712 -10.35456
 Alpha  occ. eigenvalues --  -10.35334 -10.35065 -10.35024 -10.34913 -10.33779
 Alpha  occ. eigenvalues --  -10.33614 -10.33592 -10.33285 -10.33170 -10.33090
 Alpha  occ. eigenvalues --  -10.33083 -10.33065 -10.32989 -10.32865 -10.32733
 Alpha  occ. eigenvalues --  -10.32703 -10.32652 -10.32586 -10.32495 -10.31893
 Alpha  occ. eigenvalues --  -10.31405 -10.31267 -10.31094 -10.31029 -10.30879
 Alpha  occ. eigenvalues --  -10.30770 -10.30495 -10.30427  -3.82788  -2.59057
 Alpha  occ. eigenvalues --   -2.58876  -2.58656  -1.24939  -1.23710  -1.22867
 Alpha  occ. eigenvalues --   -1.19398  -1.12964  -1.11830  -1.11023  -1.10623
 Alpha  occ. eigenvalues --   -1.10520  -1.09114  -1.07002  -0.95649  -0.94538
 Alpha  occ. eigenvalues --   -0.93569  -0.93412  -0.93013  -0.92929  -0.92338
 Alpha  occ. eigenvalues --   -0.91662  -0.89455  -0.88312  -0.87519  -0.86666
 Alpha  occ. eigenvalues --   -0.86194  -0.84322  -0.82613  -0.82349  -0.81970
 Alpha  occ. eigenvalues --   -0.80665  -0.79881  -0.78471  -0.77893  -0.77299
 Alpha  occ. eigenvalues --   -0.76807  -0.76559  -0.74814  -0.74415  -0.73817
 Alpha  occ. eigenvalues --   -0.73068  -0.72668  -0.72267  -0.70360  -0.70235
 Alpha  occ. eigenvalues --   -0.67733  -0.66628  -0.66223  -0.65433  -0.63947
 Alpha  occ. eigenvalues --   -0.63737  -0.63369  -0.63294  -0.62965  -0.61836
 Alpha  occ. eigenvalues --   -0.61171  -0.60784  -0.60484  -0.60206  -0.60095
 Alpha  occ. eigenvalues --   -0.59805  -0.59515  -0.59154  -0.58160  -0.57946
 Alpha  occ. eigenvalues --   -0.57774  -0.57578  -0.56965  -0.56591  -0.56459
 Alpha  occ. eigenvalues --   -0.56379  -0.55679  -0.55399  -0.55220  -0.55073
 Alpha  occ. eigenvalues --   -0.54796  -0.54532  -0.54321  -0.53890  -0.53548
 Alpha  occ. eigenvalues --   -0.53495  -0.53156  -0.52590  -0.52306  -0.52091
 Alpha  occ. eigenvalues --   -0.51900  -0.51770  -0.51429  -0.51403  -0.51107
 Alpha  occ. eigenvalues --   -0.50769  -0.50748  -0.50280  -0.49990  -0.49505
 Alpha  occ. eigenvalues --   -0.49014  -0.48916  -0.48523  -0.48343  -0.48101
 Alpha  occ. eigenvalues --   -0.47693  -0.47597  -0.47154  -0.46690  -0.46526
 Alpha  occ. eigenvalues --   -0.46193  -0.46026  -0.45449  -0.44915  -0.44399
 Alpha  occ. eigenvalues --   -0.43956  -0.43072  -0.42502  -0.41523  -0.41361
 Alpha  occ. eigenvalues --   -0.40799  -0.40565  -0.39191  -0.39145  -0.38903
 Alpha  occ. eigenvalues --   -0.38524  -0.37297  -0.35654  -0.35370  -0.34506
 Alpha  occ. eigenvalues --   -0.33934  -0.33635  -0.32712  -0.31497  -0.30532
 Alpha  occ. eigenvalues --   -0.29603
 Alpha virt. eigenvalues --   -0.19456  -0.19316  -0.15404  -0.12845  -0.10187
 Alpha virt. eigenvalues --   -0.09684  -0.08334  -0.07664  -0.07042  -0.06754
 Alpha virt. eigenvalues --   -0.06062  -0.05116  -0.04844  -0.04330  -0.03866
 Alpha virt. eigenvalues --   -0.03535  -0.03277  -0.02504  -0.02370  -0.01992
 Alpha virt. eigenvalues --   -0.01891  -0.01613  -0.01189  -0.00925  -0.00835
 Alpha virt. eigenvalues --   -0.00399  -0.00082   0.00120   0.00359   0.00660
 Alpha virt. eigenvalues --    0.01244   0.01536   0.02033   0.02447   0.02687
 Alpha virt. eigenvalues --    0.02881   0.03296   0.03423   0.03498   0.03863
 Alpha virt. eigenvalues --    0.04058   0.04299   0.04638   0.04722   0.04941
 Alpha virt. eigenvalues --    0.05048   0.05387   0.05652   0.05751   0.06101
 Alpha virt. eigenvalues --    0.06503   0.06690   0.06782   0.07035   0.07237
 Alpha virt. eigenvalues --    0.07490   0.07661   0.07769   0.07994   0.08393
 Alpha virt. eigenvalues --    0.08528   0.08637   0.09014   0.09200   0.09529
 Alpha virt. eigenvalues --    0.09554   0.10204   0.10253   0.10545   0.10663
 Alpha virt. eigenvalues --    0.10830   0.11250   0.11499   0.11588   0.11885
 Alpha virt. eigenvalues --    0.12139   0.12466   0.12594   0.12694   0.13108
 Alpha virt. eigenvalues --    0.13165   0.13306   0.13403   0.13739   0.13874
 Alpha virt. eigenvalues --    0.13985   0.14413   0.14670   0.14789   0.15225
 Alpha virt. eigenvalues --    0.15264   0.15477   0.15632   0.15984   0.16364
 Alpha virt. eigenvalues --    0.16562   0.16770   0.16903   0.16987   0.17224
 Alpha virt. eigenvalues --    0.17437   0.17647   0.17849   0.18130   0.18335
 Alpha virt. eigenvalues --    0.18627   0.19373   0.19427   0.19581   0.19885
 Alpha virt. eigenvalues --    0.19957   0.20227   0.20442   0.20755   0.21066
 Alpha virt. eigenvalues --    0.21095   0.21576   0.21719   0.22020   0.22201
 Alpha virt. eigenvalues --    0.22512   0.22717   0.22850   0.23015   0.23262
 Alpha virt. eigenvalues --    0.23475   0.23604   0.23951   0.24229   0.24487
 Alpha virt. eigenvalues --    0.24924   0.24983   0.25231   0.25488   0.26025
 Alpha virt. eigenvalues --    0.26090   0.26255   0.26675   0.26824   0.27101
 Alpha virt. eigenvalues --    0.27344   0.27814   0.27875   0.28080   0.28564
 Alpha virt. eigenvalues --    0.28797   0.29025   0.29130   0.29276   0.29413
 Alpha virt. eigenvalues --    0.29545   0.29875   0.30039   0.30286   0.30564
 Alpha virt. eigenvalues --    0.30630   0.30850   0.31152   0.31201   0.31429
 Alpha virt. eigenvalues --    0.31729   0.31860   0.32179   0.32578   0.32676
 Alpha virt. eigenvalues --    0.32964   0.33195   0.33237   0.33570   0.33739
 Alpha virt. eigenvalues --    0.33799   0.34114   0.34252   0.34692   0.34947
 Alpha virt. eigenvalues --    0.35152   0.35412   0.35572   0.35870   0.35963
 Alpha virt. eigenvalues --    0.36197   0.36270   0.36360   0.36447   0.36872
 Alpha virt. eigenvalues --    0.37190   0.37342   0.37749   0.37923   0.38058
 Alpha virt. eigenvalues --    0.38330   0.38407   0.38508   0.38793   0.38839
 Alpha virt. eigenvalues --    0.39155   0.39298   0.39471   0.39621   0.39837
 Alpha virt. eigenvalues --    0.40169   0.40270   0.40328   0.40625   0.40815
 Alpha virt. eigenvalues --    0.40837   0.41032   0.41477   0.41669   0.41880
 Alpha virt. eigenvalues --    0.41951   0.42400   0.42453   0.42506   0.42793
 Alpha virt. eigenvalues --    0.43033   0.43316   0.43460   0.43667   0.43758
 Alpha virt. eigenvalues --    0.43876   0.43956   0.44138   0.44471   0.44611
 Alpha virt. eigenvalues --    0.44775   0.44936   0.45279   0.45459   0.45508
 Alpha virt. eigenvalues --    0.45735   0.46118   0.46469   0.46539   0.46807
 Alpha virt. eigenvalues --    0.47098   0.47353   0.47541   0.47689   0.48041
 Alpha virt. eigenvalues --    0.48497   0.48784   0.48992   0.49375   0.49603
 Alpha virt. eigenvalues --    0.49984   0.50027   0.50228   0.50410   0.50765
 Alpha virt. eigenvalues --    0.51284   0.51358   0.51723   0.52110   0.52136
 Alpha virt. eigenvalues --    0.52434   0.52493   0.52910   0.53177   0.53278
 Alpha virt. eigenvalues --    0.53505   0.53966   0.54121   0.54233   0.54573
 Alpha virt. eigenvalues --    0.54668   0.54896   0.55124   0.55614   0.55844
 Alpha virt. eigenvalues --    0.56026   0.56401   0.56606   0.56878   0.57050
 Alpha virt. eigenvalues --    0.57307   0.57389   0.57835   0.58079   0.58179
 Alpha virt. eigenvalues --    0.58480   0.58847   0.59052   0.59229   0.59571
 Alpha virt. eigenvalues --    0.59913   0.60206   0.60358   0.60728   0.60816
 Alpha virt. eigenvalues --    0.61354   0.61491   0.61659   0.61837   0.62108
 Alpha virt. eigenvalues --    0.62379   0.62599   0.62951   0.63459   0.63774
 Alpha virt. eigenvalues --    0.64005   0.64484   0.64670   0.65011   0.65136
 Alpha virt. eigenvalues --    0.65424   0.65782   0.66200   0.66473   0.66919
 Alpha virt. eigenvalues --    0.66973   0.67375   0.67698   0.67880   0.68167
 Alpha virt. eigenvalues --    0.68456   0.68652   0.68910   0.69240   0.69412
 Alpha virt. eigenvalues --    0.69724   0.69890   0.70294   0.70708   0.71064
 Alpha virt. eigenvalues --    0.71443   0.72026   0.72288   0.72543   0.72775
 Alpha virt. eigenvalues --    0.73078   0.73370   0.73834   0.73982   0.74188
 Alpha virt. eigenvalues --    0.74392   0.74829   0.75249   0.75556   0.75848
 Alpha virt. eigenvalues --    0.76317   0.76657   0.76904   0.77222   0.77639
 Alpha virt. eigenvalues --    0.77819   0.78029   0.78452   0.78872   0.79044
 Alpha virt. eigenvalues --    0.79250   0.79835   0.80120   0.80632   0.81002
 Alpha virt. eigenvalues --    0.81520   0.82120   0.82308   0.82486   0.83046
 Alpha virt. eigenvalues --    0.83284   0.83814   0.84027   0.84233   0.84533
 Alpha virt. eigenvalues --    0.84900   0.85211   0.85484   0.85870   0.86310
 Alpha virt. eigenvalues --    0.86597   0.86819   0.87008   0.87600   0.87624
 Alpha virt. eigenvalues --    0.87996   0.88122   0.88563   0.89325   0.89565
 Alpha virt. eigenvalues --    0.89784   0.89988   0.90295   0.90365   0.90657
 Alpha virt. eigenvalues --    0.91121   0.91703   0.91758   0.92187   0.92380
 Alpha virt. eigenvalues --    0.92488   0.92624   0.92930   0.93286   0.93504
 Alpha virt. eigenvalues --    0.94007   0.94278   0.94831   0.94962   0.95184
 Alpha virt. eigenvalues --    0.95283   0.95841   0.96377   0.96801   0.96960
 Alpha virt. eigenvalues --    0.97044   0.97233   0.97388   0.98025   0.98231
 Alpha virt. eigenvalues --    0.99021   0.99088   0.99135   0.99748   0.99943
 Alpha virt. eigenvalues --    1.00169   1.00293   1.00766   1.00816   1.01279
 Alpha virt. eigenvalues --    1.01677   1.02230   1.02391   1.02560   1.03286
 Alpha virt. eigenvalues --    1.03426   1.04161   1.04313   1.04538   1.04664
 Alpha virt. eigenvalues --    1.05442   1.05571   1.06011   1.06344   1.06625
 Alpha virt. eigenvalues --    1.07004   1.07427   1.07927   1.08039   1.08479
 Alpha virt. eigenvalues --    1.09067   1.09562   1.09620   1.10229   1.10758
 Alpha virt. eigenvalues --    1.10910   1.11507   1.11810   1.12260   1.12944
 Alpha virt. eigenvalues --    1.13216   1.13568   1.13842   1.14034   1.14497
 Alpha virt. eigenvalues --    1.15009   1.15499   1.15578   1.15943   1.16245
 Alpha virt. eigenvalues --    1.16598   1.17020   1.17480   1.17669   1.18562
 Alpha virt. eigenvalues --    1.18753   1.18877   1.19288   1.19943   1.20473
 Alpha virt. eigenvalues --    1.20816   1.21045   1.21745   1.22126   1.22186
 Alpha virt. eigenvalues --    1.22549   1.23005   1.23426   1.23711   1.24455
 Alpha virt. eigenvalues --    1.24705   1.24959   1.25355   1.25889   1.26423
 Alpha virt. eigenvalues --    1.26798   1.27072   1.27751   1.28109   1.28237
 Alpha virt. eigenvalues --    1.28846   1.29568   1.29893   1.30242   1.30548
 Alpha virt. eigenvalues --    1.31081   1.31894   1.32213   1.32814   1.33176
 Alpha virt. eigenvalues --    1.33415   1.33884   1.34090   1.34675   1.34933
 Alpha virt. eigenvalues --    1.35006   1.35552   1.35749   1.36102   1.36718
 Alpha virt. eigenvalues --    1.36982   1.37289   1.37783   1.37972   1.38143
 Alpha virt. eigenvalues --    1.38535   1.38736   1.38977   1.39145   1.39532
 Alpha virt. eigenvalues --    1.39824   1.40045   1.40487   1.40751   1.40998
 Alpha virt. eigenvalues --    1.41121   1.41943   1.42364   1.42475   1.42735
 Alpha virt. eigenvalues --    1.43078   1.43324   1.43808   1.44099   1.44446
 Alpha virt. eigenvalues --    1.44494   1.45015   1.45173   1.45597   1.45990
 Alpha virt. eigenvalues --    1.46168   1.46494   1.46750   1.47280   1.47379
 Alpha virt. eigenvalues --    1.47969   1.48425   1.48475   1.48672   1.49172
 Alpha virt. eigenvalues --    1.49440   1.49603   1.49866   1.50236   1.50542
 Alpha virt. eigenvalues --    1.50861   1.51065   1.51168   1.51422   1.51800
 Alpha virt. eigenvalues --    1.51979   1.52261   1.52433   1.52768   1.53076
 Alpha virt. eigenvalues --    1.53286   1.53421   1.53447   1.53725   1.54166
 Alpha virt. eigenvalues --    1.54695   1.54903   1.55136   1.55351   1.55779
 Alpha virt. eigenvalues --    1.56024   1.56201   1.56766   1.57008   1.57210
 Alpha virt. eigenvalues --    1.58073   1.58400   1.58513   1.58859   1.59377
 Alpha virt. eigenvalues --    1.59518   1.59645   1.60077   1.60500   1.60697
 Alpha virt. eigenvalues --    1.61075   1.61404   1.61825   1.62224   1.62430
 Alpha virt. eigenvalues --    1.62846   1.63233   1.63283   1.63966   1.64346
 Alpha virt. eigenvalues --    1.64417   1.65017   1.65414   1.65628   1.65831
 Alpha virt. eigenvalues --    1.66139   1.66384   1.67598   1.68193   1.68457
 Alpha virt. eigenvalues --    1.68947   1.69163   1.69555   1.69921   1.70464
 Alpha virt. eigenvalues --    1.71049   1.71482   1.71816   1.72104   1.72762
 Alpha virt. eigenvalues --    1.72899   1.73096   1.73380   1.73880   1.74127
 Alpha virt. eigenvalues --    1.74396   1.74668   1.75223   1.75858   1.76306
 Alpha virt. eigenvalues --    1.76443   1.77247   1.77450   1.77869   1.78269
 Alpha virt. eigenvalues --    1.78346   1.79172   1.79760   1.79854   1.80335
 Alpha virt. eigenvalues --    1.80815   1.81107   1.81416   1.81621   1.81810
 Alpha virt. eigenvalues --    1.82053   1.82502   1.82588   1.83100   1.83485
 Alpha virt. eigenvalues --    1.83972   1.84399   1.84616   1.85107   1.85538
 Alpha virt. eigenvalues --    1.85634   1.86017   1.86599   1.86706   1.87255
 Alpha virt. eigenvalues --    1.87359   1.87540   1.87927   1.88367   1.88464
 Alpha virt. eigenvalues --    1.89136   1.89586   1.89969   1.90125   1.90290
 Alpha virt. eigenvalues --    1.90665   1.90978   1.91639   1.91844   1.92583
 Alpha virt. eigenvalues --    1.92769   1.93479   1.93652   1.93990   1.94508
 Alpha virt. eigenvalues --    1.94545   1.95141   1.95288   1.95987   1.96411
 Alpha virt. eigenvalues --    1.96705   1.97258   1.97690   1.98077   1.98259
 Alpha virt. eigenvalues --    1.98743   1.98811   1.99771   2.00054   2.00102
 Alpha virt. eigenvalues --    2.00687   2.00883   2.01153   2.01604   2.02332
 Alpha virt. eigenvalues --    2.02933   2.03336   2.03916   2.04757   2.05054
 Alpha virt. eigenvalues --    2.05446   2.05814   2.05959   2.06438   2.07361
 Alpha virt. eigenvalues --    2.07515   2.07744   2.07936   2.08272   2.08997
 Alpha virt. eigenvalues --    2.09211   2.09315   2.09828   2.10139   2.10287
 Alpha virt. eigenvalues --    2.10699   2.11179   2.11471   2.12439   2.12930
 Alpha virt. eigenvalues --    2.13351   2.13553   2.13880   2.14467   2.15278
 Alpha virt. eigenvalues --    2.15495   2.16004   2.16464   2.16785   2.17011
 Alpha virt. eigenvalues --    2.18001   2.18331   2.18643   2.19164   2.19636
 Alpha virt. eigenvalues --    2.20021   2.20762   2.21117   2.21281   2.22202
 Alpha virt. eigenvalues --    2.22540   2.22760   2.23293   2.23471   2.23892
 Alpha virt. eigenvalues --    2.24089   2.24813   2.25142   2.25626   2.25871
 Alpha virt. eigenvalues --    2.26267   2.26711   2.27020   2.27681   2.27910
 Alpha virt. eigenvalues --    2.28328   2.28671   2.29222   2.29498   2.29565
 Alpha virt. eigenvalues --    2.30259   2.30301   2.31019   2.31737   2.31974
 Alpha virt. eigenvalues --    2.32367   2.32819   2.33068   2.33337   2.33526
 Alpha virt. eigenvalues --    2.34225   2.34570   2.34572   2.34893   2.35196
 Alpha virt. eigenvalues --    2.35815   2.36080   2.36735   2.37040   2.37413
 Alpha virt. eigenvalues --    2.38169   2.38543   2.38683   2.39149   2.39968
 Alpha virt. eigenvalues --    2.40235   2.41288   2.41340   2.41608   2.42136
 Alpha virt. eigenvalues --    2.42591   2.42796   2.43057   2.43646   2.43741
 Alpha virt. eigenvalues --    2.44035   2.44314   2.45150   2.45309   2.45976
 Alpha virt. eigenvalues --    2.46049   2.46402   2.46734   2.47049   2.47339
 Alpha virt. eigenvalues --    2.47666   2.47918   2.48565   2.49180   2.49529
 Alpha virt. eigenvalues --    2.49675   2.50128   2.50467   2.50993   2.51088
 Alpha virt. eigenvalues --    2.51278   2.51555   2.52074   2.52338   2.52690
 Alpha virt. eigenvalues --    2.53047   2.53137   2.53499   2.54131   2.54325
 Alpha virt. eigenvalues --    2.54643   2.55092   2.55909   2.56123   2.56384
 Alpha virt. eigenvalues --    2.56552   2.56805   2.57282   2.57571   2.57670
 Alpha virt. eigenvalues --    2.58119   2.58273   2.58401   2.58833   2.59349
 Alpha virt. eigenvalues --    2.59429   2.59812   2.60285   2.60759   2.61119
 Alpha virt. eigenvalues --    2.61138   2.61926   2.62217   2.62645   2.63033
 Alpha virt. eigenvalues --    2.63557   2.63775   2.63872   2.64522   2.65000
 Alpha virt. eigenvalues --    2.65084   2.65439   2.65949   2.66159   2.66391
 Alpha virt. eigenvalues --    2.66956   2.67161   2.67868   2.68315   2.68807
 Alpha virt. eigenvalues --    2.68866   2.69269   2.69469   2.69748   2.70115
 Alpha virt. eigenvalues --    2.70409   2.70857   2.71040   2.71662   2.71881
 Alpha virt. eigenvalues --    2.72426   2.72497   2.72798   2.73450   2.74090
 Alpha virt. eigenvalues --    2.74359   2.74607   2.75127   2.75410   2.75759
 Alpha virt. eigenvalues --    2.75954   2.76434   2.76645   2.76895   2.77207
 Alpha virt. eigenvalues --    2.77764   2.78029   2.78346   2.78524   2.78942
 Alpha virt. eigenvalues --    2.79428   2.79781   2.80096   2.80425   2.80937
 Alpha virt. eigenvalues --    2.81167   2.81239   2.82067   2.82298   2.82599
 Alpha virt. eigenvalues --    2.83148   2.83265   2.83456   2.84088   2.84352
 Alpha virt. eigenvalues --    2.84500   2.84678   2.85161   2.85272   2.85467
 Alpha virt. eigenvalues --    2.86057   2.86529   2.86705   2.87058   2.87136
 Alpha virt. eigenvalues --    2.87454   2.87945   2.88356   2.88490   2.88629
 Alpha virt. eigenvalues --    2.89016   2.89277   2.89497   2.90145   2.90228
 Alpha virt. eigenvalues --    2.90611   2.90896   2.91440   2.91599   2.91928
 Alpha virt. eigenvalues --    2.92461   2.93043   2.93179   2.93651   2.94157
 Alpha virt. eigenvalues --    2.94601   2.94984   2.95173   2.95427   2.96274
 Alpha virt. eigenvalues --    2.96519   2.96531   2.96840   2.97334   2.97520
 Alpha virt. eigenvalues --    2.97775   2.98174   2.98482   2.98674   2.98914
 Alpha virt. eigenvalues --    2.99435   2.99691   2.99752   3.00339   3.00466
 Alpha virt. eigenvalues --    3.00730   3.00933   3.01379   3.01464   3.01678
 Alpha virt. eigenvalues --    3.01905   3.02611   3.02920   3.03307   3.03617
 Alpha virt. eigenvalues --    3.04052   3.04433   3.04555   3.04695   3.05047
 Alpha virt. eigenvalues --    3.05328   3.05622   3.05881   3.06225   3.06606
 Alpha virt. eigenvalues --    3.06678   3.06843   3.07614   3.07908   3.07974
 Alpha virt. eigenvalues --    3.08241   3.08418   3.08952   3.09114   3.09440
 Alpha virt. eigenvalues --    3.09606   3.10202   3.10579   3.10983   3.11119
 Alpha virt. eigenvalues --    3.11305   3.11507   3.12039   3.12572   3.12630
 Alpha virt. eigenvalues --    3.13231   3.13340   3.13791   3.14175   3.14375
 Alpha virt. eigenvalues --    3.14501   3.14838   3.15241   3.15589   3.15789
 Alpha virt. eigenvalues --    3.15819   3.16555   3.16821   3.17385   3.17485
 Alpha virt. eigenvalues --    3.17891   3.18059   3.18127   3.18533   3.18847
 Alpha virt. eigenvalues --    3.19084   3.19215   3.19299   3.19859   3.20138
 Alpha virt. eigenvalues --    3.20550   3.20870   3.21355   3.21473   3.21693
 Alpha virt. eigenvalues --    3.22118   3.22322   3.22452   3.22689   3.22746
 Alpha virt. eigenvalues --    3.23133   3.23458   3.23581   3.24079   3.24379
 Alpha virt. eigenvalues --    3.24651   3.24876   3.25046   3.25281   3.25462
 Alpha virt. eigenvalues --    3.25966   3.26287   3.26526   3.26776   3.26974
 Alpha virt. eigenvalues --    3.27235   3.27300   3.27557   3.27836   3.28319
 Alpha virt. eigenvalues --    3.28468   3.28601   3.28761   3.28964   3.29091
 Alpha virt. eigenvalues --    3.29438   3.29809   3.29934   3.30022   3.30519
 Alpha virt. eigenvalues --    3.30932   3.31280   3.31788   3.32030   3.32066
 Alpha virt. eigenvalues --    3.32634   3.32707   3.33238   3.33449   3.33813
 Alpha virt. eigenvalues --    3.34474   3.34788   3.35359   3.35497   3.35693
 Alpha virt. eigenvalues --    3.36269   3.36500   3.36684   3.37208   3.37310
 Alpha virt. eigenvalues --    3.37687   3.38124   3.38620   3.39241   3.39500
 Alpha virt. eigenvalues --    3.39855   3.40359   3.40434   3.41194   3.41739
 Alpha virt. eigenvalues --    3.41872   3.41902   3.42045   3.42625   3.42880
 Alpha virt. eigenvalues --    3.43214   3.43434   3.43809   3.44186   3.44564
 Alpha virt. eigenvalues --    3.44829   3.45356   3.45913   3.46408   3.46767
 Alpha virt. eigenvalues --    3.47201   3.47412   3.47872   3.48320   3.48546
 Alpha virt. eigenvalues --    3.48942   3.49564   3.49764   3.50051   3.50299
 Alpha virt. eigenvalues --    3.50601   3.50996   3.51550   3.51948   3.52100
 Alpha virt. eigenvalues --    3.52252   3.53383   3.54114   3.54268   3.54336
 Alpha virt. eigenvalues --    3.54783   3.54986   3.55371   3.55705   3.56061
 Alpha virt. eigenvalues --    3.56340   3.56850   3.57037   3.57421   3.57974
 Alpha virt. eigenvalues --    3.58347   3.58666   3.58926   3.59445   3.59897
 Alpha virt. eigenvalues --    3.60125   3.60415   3.61188   3.61358   3.61496
 Alpha virt. eigenvalues --    3.62039   3.62262   3.62860   3.63338   3.63500
 Alpha virt. eigenvalues --    3.63821   3.64272   3.64549   3.65060   3.65262
 Alpha virt. eigenvalues --    3.65756   3.66100   3.66337   3.66499   3.67230
 Alpha virt. eigenvalues --    3.67825   3.68270   3.68693   3.69007   3.69664
 Alpha virt. eigenvalues --    3.70490   3.70655   3.70869   3.71602   3.71889
 Alpha virt. eigenvalues --    3.72222   3.72843   3.73032   3.73568   3.74229
 Alpha virt. eigenvalues --    3.75025   3.75409   3.75979   3.76326   3.76570
 Alpha virt. eigenvalues --    3.76724   3.77384   3.78234   3.78954   3.79356
 Alpha virt. eigenvalues --    3.80459   3.80674   3.81319   3.81967   3.82208
 Alpha virt. eigenvalues --    3.83022   3.83239   3.84030   3.84235   3.85016
 Alpha virt. eigenvalues --    3.85408   3.85808   3.86395   3.86751   3.86953
 Alpha virt. eigenvalues --    3.87409   3.87697   3.88490   3.88730   3.89447
 Alpha virt. eigenvalues --    3.90188   3.90794   3.91359   3.91693   3.92322
 Alpha virt. eigenvalues --    3.92604   3.93681   3.93898   3.94197   3.94529
 Alpha virt. eigenvalues --    3.95541   3.95630   3.96119   3.96818   3.97147
 Alpha virt. eigenvalues --    3.97930   3.98257   3.98884   3.99276   3.99699
 Alpha virt. eigenvalues --    4.00129   4.00688   4.01249   4.02382   4.02637
 Alpha virt. eigenvalues --    4.02781   4.03407   4.03962   4.04348   4.04966
 Alpha virt. eigenvalues --    4.05694   4.06162   4.06336   4.06492   4.07031
 Alpha virt. eigenvalues --    4.07778   4.08611   4.09093   4.09574   4.09920
 Alpha virt. eigenvalues --    4.10754   4.11233   4.12291   4.12512   4.12887
 Alpha virt. eigenvalues --    4.13275   4.13913   4.14083   4.14375   4.14694
 Alpha virt. eigenvalues --    4.15244   4.16103   4.16452   4.16782   4.17328
 Alpha virt. eigenvalues --    4.17583   4.17905   4.18360   4.18734   4.19458
 Alpha virt. eigenvalues --    4.20085   4.20815   4.21660   4.22535   4.23243
 Alpha virt. eigenvalues --    4.23435   4.24271   4.25089   4.25544   4.27809
 Alpha virt. eigenvalues --    4.28199   4.28869   4.29311   4.29505   4.30503
 Alpha virt. eigenvalues --    4.31126   4.31659   4.32087   4.32283   4.33002
 Alpha virt. eigenvalues --    4.33397   4.34218   4.34604   4.34945   4.35122
 Alpha virt. eigenvalues --    4.36157   4.36406   4.36841   4.37587   4.38640
 Alpha virt. eigenvalues --    4.39351   4.40194   4.40823   4.41952   4.43190
 Alpha virt. eigenvalues --    4.43775   4.43924   4.44798   4.45507   4.45982
 Alpha virt. eigenvalues --    4.46549   4.47298   4.48129   4.48448   4.48762
 Alpha virt. eigenvalues --    4.49946   4.50618   4.51892   4.52297   4.53421
 Alpha virt. eigenvalues --    4.53924   4.55557   4.56221   4.56998   4.57219
 Alpha virt. eigenvalues --    4.57678   4.58543   4.59181   4.59589   4.60639
 Alpha virt. eigenvalues --    4.60855   4.61722   4.62641   4.63006   4.63049
 Alpha virt. eigenvalues --    4.64373   4.65627   4.66352   4.66573   4.67257
 Alpha virt. eigenvalues --    4.67674   4.68045   4.68655   4.69491   4.69839
 Alpha virt. eigenvalues --    4.70074   4.71145   4.72182   4.73143   4.73489
 Alpha virt. eigenvalues --    4.74028   4.74556   4.75323   4.77285   4.78148
 Alpha virt. eigenvalues --    4.79692   4.79763   4.80687   4.81015   4.82160
 Alpha virt. eigenvalues --    4.82776   4.83618   4.84412   4.85444   4.85805
 Alpha virt. eigenvalues --    4.86236   4.87016   4.88409   4.88578   4.89023
 Alpha virt. eigenvalues --    4.90345   4.91186   4.92124   4.93230   4.94924
 Alpha virt. eigenvalues --    4.95043   4.96137   4.96320   4.97567   4.98261
 Alpha virt. eigenvalues --    4.99317   4.99568   5.00058   5.00229   5.01598
 Alpha virt. eigenvalues --    5.01885   5.02792   5.04792   5.05141   5.06471
 Alpha virt. eigenvalues --    5.07631   5.08291   5.09092   5.09324   5.09714
 Alpha virt. eigenvalues --    5.10253   5.10952   5.11309   5.13149   5.13763
 Alpha virt. eigenvalues --    5.14278   5.14979   5.15192   5.15312   5.15992
 Alpha virt. eigenvalues --    5.17195   5.17224   5.17350   5.17826   5.18645
 Alpha virt. eigenvalues --    5.19618   5.20821   5.22027   5.23908   5.26203
 Alpha virt. eigenvalues --    5.27218   5.27620   5.27967   5.29557   5.30106
 Alpha virt. eigenvalues --    5.31289   5.31778   5.32253   5.33090   5.33287
 Alpha virt. eigenvalues --    5.34894   5.35885   5.36573   5.37830   5.39094
 Alpha virt. eigenvalues --    5.39655   5.40933   5.41117   5.42252   5.43278
 Alpha virt. eigenvalues --    5.44350   5.46209   5.47033   5.47143   5.48171
 Alpha virt. eigenvalues --    5.48631   5.50181   5.51335   5.51925   5.52548
 Alpha virt. eigenvalues --    5.53182   5.54338   5.56014   5.57423   5.58136
 Alpha virt. eigenvalues --    5.58391   5.59417   5.61453   5.61871   5.63415
 Alpha virt. eigenvalues --    5.63555   5.64848   5.66102   5.69340   5.70299
 Alpha virt. eigenvalues --    5.71215   5.74471   5.75074   5.77690   5.78073
 Alpha virt. eigenvalues --    5.79362   5.81489   5.84466   5.86111   5.91121
 Alpha virt. eigenvalues --    5.92096   5.92813   5.93906   5.94977   5.99113
 Alpha virt. eigenvalues --    6.02129   6.03399   6.04100   6.04709   6.04939
 Alpha virt. eigenvalues --    6.06339   6.07916   6.14592   6.14811   6.15326
 Alpha virt. eigenvalues --    6.16454   6.17883   6.27582   6.27636   6.31488
 Alpha virt. eigenvalues --    6.33361   6.33695   6.34618   6.35394   6.37001
 Alpha virt. eigenvalues --    6.37644   6.40654   6.40741   6.42221   6.45895
 Alpha virt. eigenvalues --    6.46011   6.47883   6.47954   6.60410   6.60946
 Alpha virt. eigenvalues --    6.64187   6.72817   6.74742   6.78947   6.80667
 Alpha virt. eigenvalues --    6.90456   6.91192   6.97896   7.00593   7.01377
 Alpha virt. eigenvalues --    7.06025   7.09438   7.11251   7.12421   7.14077
 Alpha virt. eigenvalues --    7.21414   7.22405  22.26465  22.27687  22.42876
 Alpha virt. eigenvalues --   22.43378  22.43654  22.45366  22.55015  22.58850
 Alpha virt. eigenvalues --   22.59361  22.64230  22.66162  22.71433  22.73114
 Alpha virt. eigenvalues --   22.86723  22.87505  22.90841  22.91977  22.96976
 Alpha virt. eigenvalues --   22.98285  23.00896  23.01464  23.07617  23.09575
 Alpha virt. eigenvalues --   23.27834  23.29943  23.34201  23.36100  23.38094
 Alpha virt. eigenvalues --   23.45381  23.48019  23.50128  23.61806  23.66399
 Alpha virt. eigenvalues --   23.72419  23.85208  23.87408  23.97724  32.35954
 Alpha virt. eigenvalues --   32.61993  32.88178  32.92486  33.01089  33.06679
 Alpha virt. eigenvalues --   43.88270  43.90810  43.92903  43.94126  44.08860
  Beta  occ. eigenvalues -- -256.57210 -30.30249 -26.13486 -26.13449 -26.13410
  Beta  occ. eigenvalues --  -19.33589 -19.32540 -19.31735 -19.24822 -19.23608
  Beta  occ. eigenvalues --  -14.57548 -14.51907 -14.49177 -14.48068 -14.47339
  Beta  occ. eigenvalues --  -14.47058 -10.41950 -10.41079 -10.40567 -10.37017
  Beta  occ. eigenvalues --  -10.36275 -10.36128 -10.35984 -10.35692 -10.35444
  Beta  occ. eigenvalues --  -10.35328 -10.35056 -10.35015 -10.34898 -10.33708
  Beta  occ. eigenvalues --  -10.33568 -10.33536 -10.33294 -10.33175 -10.33094
  Beta  occ. eigenvalues --  -10.33049 -10.33046 -10.32980 -10.32835 -10.32796
  Beta  occ. eigenvalues --  -10.32705 -10.32680 -10.32551 -10.32462 -10.31830
  Beta  occ. eigenvalues --  -10.31404 -10.31266 -10.31092 -10.31030 -10.30877
  Beta  occ. eigenvalues --  -10.30768 -10.30493 -10.30426  -3.59424  -2.34060
  Beta  occ. eigenvalues --   -2.33694  -2.33558  -1.24938  -1.23709  -1.22705
  Beta  occ. eigenvalues --   -1.18836  -1.12618  -1.11461  -1.10659  -1.10621
  Beta  occ. eigenvalues --   -1.10134  -1.09114  -1.06703  -0.95587  -0.94346
  Beta  occ. eigenvalues --   -0.93429  -0.93296  -0.92893  -0.92785  -0.92198
  Beta  occ. eigenvalues --   -0.91566  -0.89362  -0.88213  -0.87439  -0.86614
  Beta  occ. eigenvalues --   -0.86129  -0.84232  -0.82544  -0.82247  -0.81804
  Beta  occ. eigenvalues --   -0.80553  -0.79603  -0.78382  -0.77788  -0.77237
  Beta  occ. eigenvalues --   -0.76580  -0.76427  -0.74747  -0.74288  -0.73694
  Beta  occ. eigenvalues --   -0.72798  -0.72548  -0.71462  -0.70182  -0.69976
  Beta  occ. eigenvalues --   -0.67566  -0.66446  -0.65763  -0.64508  -0.63753
  Beta  occ. eigenvalues --   -0.63225  -0.63025  -0.61737  -0.61218  -0.60912
  Beta  occ. eigenvalues --   -0.60722  -0.60335  -0.59957  -0.59894  -0.58794
  Beta  occ. eigenvalues --   -0.58562  -0.58033  -0.57711  -0.57035  -0.56832
  Beta  occ. eigenvalues --   -0.56622  -0.56413  -0.55966  -0.55654  -0.55323
  Beta  occ. eigenvalues --   -0.54916  -0.54647  -0.54435  -0.54021  -0.53870
  Beta  occ. eigenvalues --   -0.53563  -0.53411  -0.52870  -0.52441  -0.52039
  Beta  occ. eigenvalues --   -0.51867  -0.51753  -0.51688  -0.51373  -0.51168
  Beta  occ. eigenvalues --   -0.50789  -0.50755  -0.50089  -0.49972  -0.49440
  Beta  occ. eigenvalues --   -0.49162  -0.48906  -0.48677  -0.48377  -0.48130
  Beta  occ. eigenvalues --   -0.48087  -0.47754  -0.47594  -0.47308  -0.46934
  Beta  occ. eigenvalues --   -0.46500  -0.46474  -0.46085  -0.45832  -0.45125
  Beta  occ. eigenvalues --   -0.44356  -0.44006  -0.42937  -0.42459  -0.42277
  Beta  occ. eigenvalues --   -0.41515  -0.41168  -0.40713  -0.40547  -0.39132
  Beta  occ. eigenvalues --   -0.38956  -0.38539  -0.37260  -0.35424  -0.34438
  Beta  occ. eigenvalues --   -0.33898  -0.33636  -0.32685  -0.31398  -0.30454
  Beta  occ. eigenvalues --   -0.29680
  Beta virt. eigenvalues --   -0.21773  -0.21594  -0.20594  -0.18662  -0.18383
  Beta virt. eigenvalues --   -0.15260  -0.14759  -0.13724  -0.12605  -0.09718
  Beta virt. eigenvalues --   -0.09556  -0.08327  -0.07448  -0.06778  -0.06535
  Beta virt. eigenvalues --   -0.05863  -0.04889  -0.04691  -0.04287  -0.03807
  Beta virt. eigenvalues --   -0.03475  -0.03110  -0.02445  -0.02209  -0.01881
  Beta virt. eigenvalues --   -0.01684  -0.01534  -0.01087  -0.00876  -0.00710
  Beta virt. eigenvalues --   -0.00290  -0.00026   0.00162   0.00435   0.00730
  Beta virt. eigenvalues --    0.01338   0.01661   0.02150   0.02492   0.02743
  Beta virt. eigenvalues --    0.02942   0.03462   0.03510   0.03557   0.03907
  Beta virt. eigenvalues --    0.04085   0.04384   0.04678   0.04829   0.04991
  Beta virt. eigenvalues --    0.05144   0.05435   0.05736   0.05829   0.06169
  Beta virt. eigenvalues --    0.06576   0.06741   0.06839   0.07130   0.07307
  Beta virt. eigenvalues --    0.07567   0.07748   0.07839   0.08048   0.08432
  Beta virt. eigenvalues --    0.08596   0.08739   0.09067   0.09307   0.09628
  Beta virt. eigenvalues --    0.09689   0.10299   0.10322   0.10695   0.10842
  Beta virt. eigenvalues --    0.10919   0.11302   0.11569   0.11650   0.12039
  Beta virt. eigenvalues --    0.12289   0.12608   0.12727   0.13055   0.13201
  Beta virt. eigenvalues --    0.13286   0.13490   0.13619   0.13829   0.13966
  Beta virt. eigenvalues --    0.14196   0.14675   0.14778   0.14994   0.15376
  Beta virt. eigenvalues --    0.15484   0.15648   0.15759   0.16051   0.16461
  Beta virt. eigenvalues --    0.16722   0.16869   0.17157   0.17330   0.17375
  Beta virt. eigenvalues --    0.17621   0.17778   0.17975   0.18372   0.18456
  Beta virt. eigenvalues --    0.18920   0.19494   0.19537   0.19787   0.20036
  Beta virt. eigenvalues --    0.20254   0.20330   0.20728   0.21014   0.21194
  Beta virt. eigenvalues --    0.21482   0.21728   0.21905   0.22073   0.22508
  Beta virt. eigenvalues --    0.22768   0.22852   0.23036   0.23194   0.23377
  Beta virt. eigenvalues --    0.23736   0.23868   0.24228   0.24473   0.24588
  Beta virt. eigenvalues --    0.25231   0.25393   0.25428   0.25786   0.26145
  Beta virt. eigenvalues --    0.26216   0.26404   0.26760   0.26957   0.27221
  Beta virt. eigenvalues --    0.27623   0.27971   0.28065   0.28230   0.28757
  Beta virt. eigenvalues --    0.28901   0.29181   0.29280   0.29383   0.29548
  Beta virt. eigenvalues --    0.29612   0.30062   0.30145   0.30362   0.30682
  Beta virt. eigenvalues --    0.30747   0.30929   0.31273   0.31394   0.31588
  Beta virt. eigenvalues --    0.31791   0.32004   0.32302   0.32686   0.32835
  Beta virt. eigenvalues --    0.33071   0.33298   0.33368   0.33644   0.33838
  Beta virt. eigenvalues --    0.33925   0.34239   0.34343   0.34831   0.35105
  Beta virt. eigenvalues --    0.35283   0.35589   0.35621   0.35920   0.36160
  Beta virt. eigenvalues --    0.36269   0.36399   0.36483   0.36580   0.36933
  Beta virt. eigenvalues --    0.37275   0.37480   0.37824   0.37964   0.38168
  Beta virt. eigenvalues --    0.38396   0.38507   0.38603   0.38851   0.39093
  Beta virt. eigenvalues --    0.39205   0.39361   0.39526   0.39757   0.39991
  Beta virt. eigenvalues --    0.40233   0.40378   0.40441   0.40695   0.40917
  Beta virt. eigenvalues --    0.40995   0.41193   0.41506   0.41785   0.41948
  Beta virt. eigenvalues --    0.42026   0.42503   0.42562   0.42640   0.42979
  Beta virt. eigenvalues --    0.43118   0.43436   0.43551   0.43768   0.43824
  Beta virt. eigenvalues --    0.43987   0.44169   0.44220   0.44568   0.44715
  Beta virt. eigenvalues --    0.44880   0.45028   0.45411   0.45499   0.45650
  Beta virt. eigenvalues --    0.45844   0.46223   0.46587   0.46705   0.46981
  Beta virt. eigenvalues --    0.47193   0.47511   0.47665   0.47805   0.48269
  Beta virt. eigenvalues --    0.48623   0.48906   0.49142   0.49475   0.49734
  Beta virt. eigenvalues --    0.50085   0.50132   0.50430   0.50511   0.50940
  Beta virt. eigenvalues --    0.51345   0.51452   0.51834   0.52230   0.52293
  Beta virt. eigenvalues --    0.52538   0.52568   0.53012   0.53254   0.53347
  Beta virt. eigenvalues --    0.53680   0.54136   0.54214   0.54343   0.54702
  Beta virt. eigenvalues --    0.54781   0.55067   0.55307   0.55849   0.55947
  Beta virt. eigenvalues --    0.56173   0.56501   0.56739   0.57082   0.57128
  Beta virt. eigenvalues --    0.57462   0.57605   0.58002   0.58192   0.58292
  Beta virt. eigenvalues --    0.58606   0.58927   0.59137   0.59430   0.59683
  Beta virt. eigenvalues --    0.60143   0.60354   0.60504   0.60944   0.61048
  Beta virt. eigenvalues --    0.61442   0.61591   0.61789   0.61947   0.62279
  Beta virt. eigenvalues --    0.62483   0.62693   0.63062   0.63540   0.63903
  Beta virt. eigenvalues --    0.64116   0.64672   0.64759   0.65158   0.65280
  Beta virt. eigenvalues --    0.65534   0.65916   0.66330   0.66594   0.67050
  Beta virt. eigenvalues --    0.67153   0.67493   0.67866   0.67961   0.68388
  Beta virt. eigenvalues --    0.68640   0.68737   0.69040   0.69362   0.69486
  Beta virt. eigenvalues --    0.69803   0.70026   0.70429   0.70822   0.71155
  Beta virt. eigenvalues --    0.71572   0.72148   0.72493   0.72703   0.72847
  Beta virt. eigenvalues --    0.73264   0.73516   0.73970   0.74108   0.74288
  Beta virt. eigenvalues --    0.74611   0.74928   0.75364   0.75680   0.75960
  Beta virt. eigenvalues --    0.76421   0.76735   0.77010   0.77389   0.77726
  Beta virt. eigenvalues --    0.78076   0.78131   0.78541   0.78970   0.79147
  Beta virt. eigenvalues --    0.79297   0.79996   0.80250   0.80700   0.81189
  Beta virt. eigenvalues --    0.81599   0.82274   0.82464   0.82568   0.83171
  Beta virt. eigenvalues --    0.83507   0.83943   0.84151   0.84434   0.84617
  Beta virt. eigenvalues --    0.84991   0.85331   0.85579   0.86021   0.86425
  Beta virt. eigenvalues --    0.86668   0.86933   0.87286   0.87698   0.87800
  Beta virt. eigenvalues --    0.88143   0.88302   0.88742   0.89503   0.89737
  Beta virt. eigenvalues --    0.89878   0.90188   0.90412   0.90565   0.90879
  Beta virt. eigenvalues --    0.91305   0.91875   0.91971   0.92310   0.92664
  Beta virt. eigenvalues --    0.92762   0.92944   0.93152   0.93484   0.93917
  Beta virt. eigenvalues --    0.94142   0.94474   0.94926   0.95101   0.95309
  Beta virt. eigenvalues --    0.95463   0.96226   0.96544   0.97020   0.97200
  Beta virt. eigenvalues --    0.97334   0.97398   0.97485   0.98462   0.98731
  Beta virt. eigenvalues --    0.99110   0.99265   0.99634   0.99843   1.00310
  Beta virt. eigenvalues --    1.00360   1.00486   1.01010   1.01225   1.01382
  Beta virt. eigenvalues --    1.01947   1.02346   1.02641   1.02875   1.03421
  Beta virt. eigenvalues --    1.03743   1.04341   1.04496   1.04695   1.04889
  Beta virt. eigenvalues --    1.05534   1.05909   1.06349   1.06536   1.06939
  Beta virt. eigenvalues --    1.07171   1.07703   1.08019   1.08193   1.08750
  Beta virt. eigenvalues --    1.09331   1.09676   1.09912   1.10399   1.11019
  Beta virt. eigenvalues --    1.11114   1.11660   1.12084   1.12408   1.13199
  Beta virt. eigenvalues --    1.13666   1.13775   1.14123   1.14339   1.15002
  Beta virt. eigenvalues --    1.15472   1.15681   1.15760   1.16223   1.16584
  Beta virt. eigenvalues --    1.17105   1.17293   1.17616   1.17888   1.18663
  Beta virt. eigenvalues --    1.18931   1.19152   1.19550   1.19997   1.20848
  Beta virt. eigenvalues --    1.21015   1.21249   1.21900   1.22212   1.22334
  Beta virt. eigenvalues --    1.22760   1.23069   1.23738   1.23931   1.24658
  Beta virt. eigenvalues --    1.24941   1.25201   1.25492   1.26109   1.26557
  Beta virt. eigenvalues --    1.26994   1.27393   1.27902   1.28304   1.28410
  Beta virt. eigenvalues --    1.29116   1.29760   1.30072   1.30348   1.30772
  Beta virt. eigenvalues --    1.31269   1.32088   1.32364   1.32947   1.33360
  Beta virt. eigenvalues --    1.33589   1.33958   1.34235   1.34798   1.34987
  Beta virt. eigenvalues --    1.35257   1.35622   1.35874   1.36229   1.36946
  Beta virt. eigenvalues --    1.37135   1.37449   1.37986   1.38103   1.38262
  Beta virt. eigenvalues --    1.38813   1.38902   1.39113   1.39223   1.39680
  Beta virt. eigenvalues --    1.40137   1.40176   1.40628   1.40829   1.41105
  Beta virt. eigenvalues --    1.41256   1.42073   1.42582   1.42616   1.42835
  Beta virt. eigenvalues --    1.43190   1.43452   1.43960   1.44290   1.44511
  Beta virt. eigenvalues --    1.44617   1.45170   1.45390   1.45780   1.46131
  Beta virt. eigenvalues --    1.46311   1.46565   1.46887   1.47364   1.47485
  Beta virt. eigenvalues --    1.48087   1.48509   1.48540   1.48831   1.49289
  Beta virt. eigenvalues --    1.49512   1.49675   1.49992   1.50297   1.50618
  Beta virt. eigenvalues --    1.50948   1.51171   1.51314   1.51483   1.51853
  Beta virt. eigenvalues --    1.52062   1.52306   1.52562   1.52846   1.53111
  Beta virt. eigenvalues --    1.53348   1.53532   1.53540   1.53840   1.54334
  Beta virt. eigenvalues --    1.54759   1.55005   1.55259   1.55476   1.55858
  Beta virt. eigenvalues --    1.56100   1.56275   1.56845   1.57096   1.57287
  Beta virt. eigenvalues --    1.58146   1.58482   1.58584   1.58988   1.59505
  Beta virt. eigenvalues --    1.59583   1.59734   1.60141   1.60635   1.60791
  Beta virt. eigenvalues --    1.61209   1.61485   1.61913   1.62300   1.62548
  Beta virt. eigenvalues --    1.62921   1.63332   1.63431   1.64083   1.64457
  Beta virt. eigenvalues --    1.64563   1.65137   1.65494   1.65813   1.65983
  Beta virt. eigenvalues --    1.66255   1.66536   1.67740   1.68298   1.68532
  Beta virt. eigenvalues --    1.69068   1.69246   1.69680   1.70051   1.70594
  Beta virt. eigenvalues --    1.71175   1.71569   1.71979   1.72402   1.72828
  Beta virt. eigenvalues --    1.73005   1.73244   1.73478   1.73873   1.74227
  Beta virt. eigenvalues --    1.74527   1.74758   1.75486   1.75997   1.76393
  Beta virt. eigenvalues --    1.76649   1.77362   1.77636   1.78021   1.78380
  Beta virt. eigenvalues --    1.78461   1.79312   1.79900   1.80036   1.80467
  Beta virt. eigenvalues --    1.80963   1.81325   1.81609   1.81743   1.81895
  Beta virt. eigenvalues --    1.82206   1.82613   1.82808   1.83405   1.83851
  Beta virt. eigenvalues --    1.84101   1.84495   1.84795   1.85284   1.85644
  Beta virt. eigenvalues --    1.85746   1.86190   1.86702   1.86883   1.87440
  Beta virt. eigenvalues --    1.87635   1.87760   1.88146   1.88517   1.88705
  Beta virt. eigenvalues --    1.89251   1.89754   1.90115   1.90216   1.90416
  Beta virt. eigenvalues --    1.90888   1.91270   1.91702   1.92064   1.92731
  Beta virt. eigenvalues --    1.92882   1.93560   1.93835   1.94277   1.94607
  Beta virt. eigenvalues --    1.94787   1.95364   1.95429   1.96203   1.96745
  Beta virt. eigenvalues --    1.96868   1.97541   1.97874   1.98181   1.98336
  Beta virt. eigenvalues --    1.98886   1.98979   1.99922   2.00123   2.00388
  Beta virt. eigenvalues --    2.00901   2.00968   2.01373   2.01789   2.02483
  Beta virt. eigenvalues --    2.03156   2.03647   2.04066   2.05022   2.05162
  Beta virt. eigenvalues --    2.05565   2.05956   2.06140   2.06579   2.07495
  Beta virt. eigenvalues --    2.07596   2.07873   2.08069   2.08402   2.09109
  Beta virt. eigenvalues --    2.09340   2.09553   2.09991   2.10223   2.10465
  Beta virt. eigenvalues --    2.10885   2.11447   2.11649   2.12654   2.13066
  Beta virt. eigenvalues --    2.13579   2.13673   2.13982   2.14580   2.15415
  Beta virt. eigenvalues --    2.15669   2.16181   2.16597   2.16968   2.17245
  Beta virt. eigenvalues --    2.18100   2.18479   2.18875   2.19253   2.19844
  Beta virt. eigenvalues --    2.20164   2.20922   2.21291   2.21431   2.22328
  Beta virt. eigenvalues --    2.22647   2.23183   2.23405   2.23632   2.24107
  Beta virt. eigenvalues --    2.24346   2.24951   2.25320   2.25924   2.26023
  Beta virt. eigenvalues --    2.26334   2.26861   2.27233   2.27772   2.28083
  Beta virt. eigenvalues --    2.28513   2.28806   2.29357   2.29596   2.29698
  Beta virt. eigenvalues --    2.30361   2.30474   2.31210   2.31837   2.32264
[...]
  1629. RY*(   5) H  83                  0.00000     2.86628   
  1630. RY*(   1) H  84                  0.00026     1.14866   
  1631. RY*(   2) H  84                  0.00007     1.82319   
  1632. RY*(   3) H  84                  0.00003     1.70001   
  1633. RY*(   4) H  84                  0.00003     2.03598   
  1634. RY*(   5) H  84                  0.00000     2.91041   
  1635. RY*(   1) H  85                  0.00078     0.69336   
  1636. RY*(   2) H  85                  0.00014     2.15955   
  1637. RY*(   3) H  85                  0.00012     2.17997   
  1638. RY*(   4) H  85                  0.00005     3.01776   
  1639. RY*(   5) H  85                  0.00000     3.18174   
  1640. RY*(   1) H  86                  0.00087     0.56922   
  1641. RY*(   2) H  86                  0.00013     2.07990   
  1642. RY*(   3) H  86                  0.00013     2.17082   
  1643. RY*(   4) H  86                  0.00005     2.99150   
  1644. RY*(   5) H  86                  0.00001     3.10865   
  1645. RY*(   1) H  87                  0.00043     0.71839   
  1646. RY*(   2) H  87                  0.00038     0.76977   
  1647. RY*(   3) H  87                  0.00022     1.68823   
  1648. RY*(   4) H  87                  0.00012     1.22134   
  1649. RY*(   5) H  87                  0.00000     2.21816   
  1650. BD*(   1) C   1 - C   5          0.01139     0.46191   
  1651. BD*(   1) C   1 - C  32          0.01199     0.44403   
  1652. BD*(   1) C   1 - H  85          0.00631     0.34675   
  1653. BD*(   1) C   2 - C   8          0.01170     0.44870   
  1654. BD*(   1) C   2 - C  15          0.01142     0.43605   
  1655. BD*(   1) C   2 - H  86          0.00611     0.34861   
  1656. BD*(   1) C   3 - C  18          0.01103     0.45131   
  1657. BD*(   2) C   3 - C  18          0.19216    -0.07027  1689(v),1704(v),1687(v)
                                                    239(g),1698(r),632(g)
  1658. BD*(   1) C   3 - C  22          0.01143     0.44207   
  1659. BD*(   1) C   3 - H  60          0.00648     0.34588   
  1660. BD*(   1) C   4 - C  25          0.01154     0.43525   
  1661. BD*(   1) C   4 - C  29          0.01174     0.47203   
  1662. BD*(   1) C   4 - H  67          0.00662     0.34811   
  1663. BD*(   1) C   5 - C   6          0.01465     0.46433   
  1664. BD*(   1) C   5 - N  39          0.01492     0.43697   
  1665. BD*(   2) C   5 - N  39          0.32753    -0.09222  1667(v),170(v),181(v),293(g)
                                                    1174(g),183(v),188(v)
  1666. BD*(   1) C   6 - C   7          0.01159     0.42990   
  1667. BD*(   2) C   6 - C   7          0.13309    -0.04638  1665(v),170(v),1675(v)
                                                    1672(v),1673(v),1757(r)
  1668. BD*(   1) C   6 - C  10          0.01185     0.28844   
  1669. BD*(   1) C   7 - C   8          0.01508     0.44370   
  1670. BD*(   1) C   7 - C   9          0.00760     0.27461   
  1671. BD*(   1) C   8 - N  39          0.01434     0.43921   
  1672. BD*(   1) C   9 - H  82          0.00386     0.32189   
  1673. BD*(   1) C   9 - H  83          0.00327     0.32026   
  1674. BD*(   1) C   9 - H  84          0.00223     0.33181   
  1675. BD*(   1) C  10 - C  11          0.00689     0.30145   
  1676. BD*(   1) C  10 - H  77          0.00769     0.33543   
  1677. BD*(   1) C  10 - H  78          0.00720     0.32551   
  1678. BD*(   1) C  11 - C  12          0.04310     0.25926   
  1679. BD*(   1) C  11 - H  79          0.00706     0.31538   
  1680. BD*(   1) C  11 - H  80          0.00602     0.32229   
  1681. BD*(   1) C  12 - O  13          0.02894     0.48444   
  1682. BD*(   2) C  12 - O  13          0.08701    -0.01245   
  1683. BD*(   1) C  12 - O  14          0.03382     0.47356   
  1684. BD*(   1) O  14 - H  81          0.00816     0.31095   
  1685. BD*(   1) C  15 - C  16          0.01485     0.43833   
  1686. BD*(   1) C  15 - N  40          0.01485     0.43235   
  1687. BD*(   2) C  15 - N  40          0.35081    -0.11232  182(v),1689(v),1657(v)
                                                    551(g),1200(g),183(v),214(v)
                                                    1758(r)
  1688. BD*(   1) C  16 - C  17          0.01358     0.46348   
  1689. BD*(   2) C  16 - C  17          0.17366    -0.05441  1657(v),1698(v),1687(v)
                                                    1694(v),605(g),1695(v)
                                                    578(g)
  1690. BD*(   1) C  16 - C  19          0.00743     0.27744   
  1691. BD*(   1) C  17 - C  18          0.01559     0.44133   
  1692. BD*(   1) C  17 - C  20          0.01124     0.43529   
  1693. BD*(   1) C  18 - N  40          0.01427     0.42863   
  1694. BD*(   1) C  19 - H  54          0.00404     0.31809   
  1695. BD*(   1) C  19 - H  55          0.00318     0.31684   
  1696. BD*(   1) C  19 - H  56          0.00293     0.32227   
  1697. BD*(   1) C  20 - C  21          0.00316     0.39147   
  1698. BD*(   2) C  20 - C  21          0.06206    -0.08584   
  1699. BD*(   1) C  20 - H  59          0.00818     0.34210   
  1700. BD*(   1) C  21 - H  57          0.00204     0.34448   
  1701. BD*(   1) C  21 - H  58          0.00281     0.33987   
  1702. BD*(   1) C  22 - C  23          0.01383     0.44435   
  1703. BD*(   1) C  22 - N  41          0.01472     0.41501   
  1704. BD*(   2) C  22 - N  41          0.33502    -0.10231  1657(v),1706(v),175(v)
                                                    182(v),181(v),734(g),1226(g)
                                                    183(v),239(v),811(v)
  1705. BD*(   1) C  23 - C  24          0.01383     0.43316   
  1706. BD*(   2) C  23 - C  24          0.17231    -0.05267  1715(v),1704(v),175(v)
                                                    1712(v),1713(v)
  1707. BD*(   1) C  23 - C  26          0.00710     0.25604   
  1708. BD*(   1) C  24 - C  25          0.01561     0.45154   
  1709. BD*(   1) C  24 - C  27          0.01175     0.44242   
  1710. BD*(   1) C  25 - N  41          0.01360     0.44166   
  1711. BD*(   1) C  26 - H  61          0.00299     0.33012   
  1712. BD*(   1) C  26 - H  62          0.00372     0.31752   
  1713. BD*(   1) C  26 - H  63          0.00343     0.32026   
  1714. BD*(   1) C  27 - C  28          0.00346     0.40708   
  1715. BD*(   2) C  27 - C  28          0.04828    -0.06861   
  1716. BD*(   1) C  27 - H  66          0.00810     0.35525   
  1717. BD*(   1) C  28 - H  64          0.00208     0.35957   
  1718. BD*(   1) C  28 - H  65          0.00313     0.35387   
  1719. BD*(   1) C  29 - C  30          0.01536     0.47024   
  1720. BD*(   1) C  29 - N  42          0.01454     0.44741   
  1721. BD*(   2) C  29 - N  42          0.33071    -0.09337  1723(v),176(v),182(v),915(g)
                                                    1252(g),265(v),184(v)
                                                    1253(g),183(v),993(v)
  1722. BD*(   1) C  30 - C  31          0.01127     0.45039   
  1723. BD*(   2) C  30 - C  31          0.13705    -0.04604  1721(v),176(v),1731(v)
                                                    1728(v),1729(v)
  1724. BD*(   1) C  30 - C  33          0.00758     0.27467   
  1725. BD*(   1) C  31 - C  32          0.01521     0.46310   
  1726. BD*(   1) C  31 - C  34          0.01126     0.29636   
  1727. BD*(   1) C  32 - N  42          0.01354     0.47535   
  1728. BD*(   1) C  33 - H  68          0.00390     0.31605   
  1729. BD*(   1) C  33 - H  69          0.00347     0.31702   
  1730. BD*(   1) C  33 - H  70          0.00222     0.32087   
  1731. BD*(   1) C  34 - C  35          0.00879     0.28279   
  1732. BD*(   1) C  34 - H  71          0.00668     0.32472   
  1733. BD*(   1) C  34 - H  72          0.00704     0.32018   
  1734. BD*(   1) C  35 - C  36          0.03986     0.28155   
  1735. BD*(   1) C  35 - H  73          0.00621     0.30778   
  1736. BD*(   1) C  35 - H  74          0.00564     0.31905   
  1737. BD*(   1) C  36 - O  37          0.02044     0.52887   
  1738. BD*(   2) C  36 - O  37          0.08889    -0.05910   
  1739. BD*(   1) C  36 - O  38          0.03517     0.46549   
  1740. BD*(   1) O  38 - H  87          0.00714     0.30235   
  1741. BD*(   1) N  39 -Fe  43          0.03508     0.24614   
  1742. BD*(   1) N  40 -Fe  43          0.03548     0.24248   
  1743. BD*(   1) N  41 -Fe  43          0.03170     0.23644   
  1744. BD*(   1) N  42 -Fe  43          0.03207     0.22105   
  1745. BD*(   1)Fe  43 - N  46          0.03720     0.13984   
  1746. BD*(   1) N  44 - C  45          0.01141     0.40493   
  1747. BD*(   2) N  44 - C  45          0.28920    -0.16215  1753(v),181(r),1331(g)
                                                    1333(g),1306(g),1305(g)
  1748. BD*(   1) N  44 - C  48          0.00630     0.40873   
  1749. BD*(   1) N  44 - H  49          0.00792     0.32164   
  1750. BD*(   1) C  45 - N  46          0.01043     0.42394   
  1751. BD*(   1) C  45 - H  53          0.00728     0.26006   
  1752. BD*(   1) N  46 - C  47          0.00855     0.45759   
  1753. BD*(   2) N  46 - C  47          0.29680    -0.12311  1747(v),182(v),181(v)
                                                    1382(g),1357(g),1396(g)
                                                    1411(v),1397(g),1331(v)
  1754. BD*(   1) C  47 - C  48          0.00849     0.42393   
  1755. BD*(   1) C  47 - H  52          0.00730     0.30817   
  1756. BD*(   1) C  48 - H  51          0.00512     3.24597   
       -------------------------------
              Total Lewis  170.28697  ( 96.6750%)
        Valence non-Lewis    5.52442  (  3.1363%)
        Rydberg non-Lewis    0.33229  (  0.1886%)
       -------------------------------
            Total unit  1  176.14368  (100.0000%)
           Charge unit  1    2.85632

 Molecular unit  2  (H2O)
   108. BD (   1) O  50 - H  75          0.99464    -0.90538  183(r),182(r),1745(r)
                                                    1590(v),181(r),1277(r)
                                                    1359(r),1283(r),1357(r)
                                                    1177(r),1280(r),1279(r)
                                                    1174(r),1282(r),1203(r)
                                                    1181(r),1356(r),1201(r)
   109. BD (   1) O  50 - H  76          0.95375    -0.94573  183(r),1745(r),182(r)
                                                    1742(r),1744(r),184(r)
                                                    1743(r),1176(r),1279(r)
                                                    1202(r),1741(r),1357(r)
                                                    1687(r),1199(r),1173(r)
                                                    1283(r),1358(r),1693(r)
                                                    1253(r),1174(r),1228(r)
                                                    1356(r),1226(r),1285(r)
                                                    1686(r),1664(r),1227(r)
                                                    1365(r),1225(r),181(r)
                                                    1252(r),1671(r)
   166. CR (   1) O  50                  0.99990   -19.10249  183(r),182(r),1745(r)
                                                    1590(v),1281(r),1743(r)
                                                    181(r),1744(r),1277(r)
                                                    1279(r),1742(r)
   186. LP (   1) O  50                  0.97405    -0.57474  183(r),181(r),1741(r)
                                                    1743(r),182(r),1590(v)
                                                    1586(v),1279(r),1665(r)
                                                    1278(r),1745(r),1744(r)
                                                    1359(r),1742(r),1277(r)
                                                    1687(r),1173(r),1176(r)
                                                    1202(r),1203(r),1254(r)
                                                    1226(r),1177(r),1704(r)
                                                    1182(r),1229(r),1227(r)
   187. LP (   2) O  50                  0.89652    -0.56422  183(r),182(r),1745(r)
                                                    1758(g),1590(v),1587(v)
                                                    1592(v),1442(g),1228(r)
                                                    1744(r),1176(r),1445(g)
                                                    1251(r),1741(r),1199(r)
                                                    1277(r),1173(r),181(r)
                                                    1202(r),1225(r),1282(r)
                                                    1285(r),1365(r),1254(r)
                                                    1671(r),1226(r),1720(r)
                                                    1283(r),1174(r),1207(r)
                                                    1727(r),184(r),1203(r)
                                                    1703(r),1359(r),1296(r)
  1439. RY*(   1) O  50                  0.00144     1.02474   
  1440. RY*(   2) O  50                  0.00095     0.76273   
  1441. RY*(   3) O  50                  0.00060     1.13886   
  1442. RY*(   4) O  50                  0.00020     1.17430   
  1443. RY*(   5) O  50                  0.00010     1.73797   
  1444. RY*(   6) O  50                  0.00007     1.82233   
  1445. RY*(   7) O  50                  0.00008     3.00130   
  1446. RY*(   8) O  50                  0.00004     1.65378   
  1447. RY*(   9) O  50                  0.00002     3.00636   
  1448. RY*(  10) O  50                  0.00002     2.59260   
  1449. RY*(  11) O  50                  0.00000     6.29840   
  1450. RY*(  12) O  50                  0.00001     2.90018   
  1451. RY*(  13) O  50                  0.00000     6.18612   
  1452. RY*(  14) O  50                  0.00001     3.20525   
  1453. RY*(  15) O  50                  0.00000     6.27560   
  1454. RY*(  16) O  50                  0.00001     3.49739   
  1455. RY*(  17) O  50                  0.00000     6.09423   
  1456. RY*(  18) O  50                  0.00000    41.91910   
  1457. RY*(  19) O  50                  0.00000     6.25328   
  1458. RY*(  20) O  50                  0.00000     5.43976   
  1459. RY*(  21) O  50                  0.00000     5.37286   
  1460. RY*(  22) O  50                  0.00000     5.46893   
  1461. RY*(  23) O  50                  0.00000     5.14168   
  1462. RY*(  24) O  50                  0.00000     5.38551   
  1463. RY*(  25) O  50                  0.00000     5.21391   
  1464. RY*(  26) O  50                  0.00000     5.39356   
  1585. RY*(   1) H  75                  0.00059     0.55907   
  1586. RY*(   2) H  75                  0.00032     2.14186   
  1587. RY*(   3) H  75                  0.00021     2.08311   
  1588. RY*(   4) H  75                  0.00009     2.17414   
  1589. RY*(   5) H  75                  0.00000     3.38369   
  1590. RY*(   1) H  76                  0.00105     1.79063   
  1591. RY*(   2) H  76                  0.00024     2.58596   
  1592. RY*(   3) H  76                  0.00020     1.48319   
  1593. RY*(   4) H  76                  0.00010     2.84152   
  1594. RY*(   5) H  76                  0.00004     2.98074   
  1757. BD*(   1) O  50 - H  75          0.00365     5.22334   
  1758. BD*(   1) O  50 - H  76          0.02726     2.59552   
       -------------------------------
              Total Lewis    4.81887  ( 99.2318%)
        Valence non-Lewis    0.03091  (  0.6364%)
        Rydberg non-Lewis    0.00640  (  0.1317%)
       -------------------------------
            Total unit  2    4.85617  (100.0000%)
           Charge unit  2    0.14383
 1\1\GINC-NODE841\SP\UPBE1PBE\def2TZVP\C37H38Fe1N6O5(1+,6)\ZHARTOVSKA\2
 7-Jan-2023\0\\# PBE1PBE/def2TZVP empiricaldispersion=GD3BJ int=(grid=u
 ltrafine) geom=check pop=nbo\\1ccg_III_H\\1,6\C,0,-5.506,53.923,112.93
 \C,0,-7.562,57.972,114.377998\C,0,-5.926,60.125999,110.472\C,0,-3.654,
 56.113998,109.164001\C,0,-6.228,54.827,113.697998\C,0,-6.758,54.532001
 ,114.942001\C,0,-7.395,55.715,115.374001\C,0,-7.147,56.641998,114.3690
 03\C,0,-8.23,55.922001,116.644997\C,0,-6.626,53.173,115.640999\C,0,-5.
 472,53.012001,116.584\C,0,-5.394,51.617001,117.223999\O,0,-6.246,51.25
 9998,118.040001\O,0,-4.475,50.847,116.942001\C,0,-7.381,58.931999,113.
 375999\C,0,-7.941,60.210999,113.411003\C,0,-7.522,60.812,112.232002\C,
 0,-6.685,59.879002,111.612\C,0,-8.919,60.678001,114.485001\C,0,-7.826,
 62.055,111.651001\C,0,-8.743,63.063999,112.110001\C,0,-5.081,59.252998
 ,109.775002\C,0,-4.298,59.622002,108.682999\C,0,-3.589,58.445999,108.3
 65997\C,0,-4.047,57.462002,109.228996\C,0,-4.188,61.047001,108.081001\
 C,0,-2.635,58.152,107.377998\C,0,-2.272,58.924,106.227997\C,0,-4.,55.0
 82001,110.014\C,0,-3.674,53.752998,109.834\C,0,-4.208,53.123001,110.96
 3997\C,0,-4.83,54.109001,111.714996\C,0,-3.02,53.098999,108.612999\C,0
 ,-4.19,51.630001,111.269997\C,0,-3.016,51.229,112.144997\C,0,-3.008,49
 .790001,112.600998\O,0,-2.443,49.528,113.656998\O,0,-3.547,48.922001,1
 11.917999\N,0,-6.462,56.099998,113.359001\N,0,-6.701,58.710999,112.254
 997\N,0,-4.921,57.955002,110.103996\N,0,-4.723,55.273998,111.115997\Fe
 ,0,-5.857,56.937,111.602997\N,0,-9.264,56.771999,109.591003\C,0,-8.576
 ,56.827999,110.692001\N,0,-7.374,56.400002,110.419998\C,0,-7.308,56.07
 8999,109.165001\C,0,-8.548,56.317001,108.603996\H,0,-10.166,57.108002,
 109.492996\O,0,-4.422,57.485001,112.862\H,0,-8.85064843,56.16247539,10
 7.58938979\H,0,-6.44757431,55.69817754,108.65554772\H,0,-8.92966584,57
 .16293345,111.6447021\H,0,-8.47703616,61.47303368,115.04846439\H,0,-9.
 81819471,61.02643021,114.02137835\H,0,-9.14761543,59.86203563,115.1383
 2749\H,0,-8.42477212,64.08300091,112.18256908\H,0,-9.74325724,62.79545
 327,112.37882928\H,0,-7.30480636,62.28163653,110.74441781\H,0,-5.99760
 269,61.11670074,110.07415189\H,0,-3.29125105,61.12135216,107.50202499\
 H,0,-5.03415292,61.23551722,107.45379539\H,0,-4.16270198,61.7673059,10
 8.87183655\H,0,-1.30666668,58.80008259,105.78338924\H,0,-2.9660696,59.
 62481928,105.8132444\H,0,-2.10950113,57.22809341,107.5010734\H,0,-3.00
 493131,55.8547559,108.35381376\H,0,-2.07770052,52.67820197,108.8956676
 1\H,0,-3.65773385,52.32595592,108.23803241\H,0,-2.86771719,53.83599136
 ,107.8523728\H,0,-4.13470648,51.0890761,110.34845325\H,0,-5.09898196,5
 1.36890342,111.77047662\H,0,-2.11413607,51.41183062,111.59899845\H,0,-
 3.01659566,51.85485271,113.01287259\H,0,-3.57066867,57.92866188,112.86
 2\H,0,-5.12406459,58.13975691,112.862\H,0,-7.52743218,52.99509964,116.
 1893342\H,0,-6.54208858,52.42010505,114.88534824\H,0,-4.56411051,53.19
 346777,116.04761721\H,0,-5.56200633,53.74079509,117.36224034\H,0,-3.56
 332963,51.1294171,117.04543081\H,0,-7.6910114,56.54435544,117.32841945
 \H,0,-9.15708263,56.39154393,116.39014951\H,0,-8.42404701,54.97441953,
 117.10252855\H,0,-5.45781913,52.93038165,113.32659478\H,0,-8.08069943,
 58.29811494,115.25520946\H,0,-3.01035017,48.29644599,111.42577153\\Ver
 sion=AM64L-G16RevA.03\State=6-A\HF=-3399.1213577\S2=8.764222\S2-1=0.\S
 2A=8.75006\RMSD=6.525e-09\Dipole=-1.2386581,3.0104324,-3.6763935\Quadr
 upole=7.3400496,2.7001003,-10.0401499,-25.6466228,-0.7431708,24.181430
 9\PG=C01 [X(C37H38Fe1N6O5)]\\@


 ALMOST ALL THE CHEMICAL PROCESSES WHICH OCCUR IN NATURE,
 WHETHER IN ANIMAL OR VEGETABLE ORGANISMS,
 OR IN THE NON-LIVING SURFACE OF THE EARTH ... 
 TAKE PLACE BETWEEN SUBSTANCES IN SOLUTION

                                    -- W. OSTWALD, 1890
 Job cpu time:       5 days 18 hours 22 minutes 42.1 seconds.
 Elapsed time:       1 days 10 hours 44 minutes 36.2 seconds.
 File lengths (MBytes):  RWF=   2849 Int=      0 D2E=      0 Chk=    241 Scr=      1
 Normal termination of Gaussian 16 at Fri Jan 27 21:23:01 2023.
