 Initial command:
 /afs/math/software/gaussian/g16.A03/g16/l1.exe "/scratch/zhartovska_gaussian.egZJLix/Gau-29545.inp" -scrdir="/scratch/zhartovska_gaussian.egZJLix/"
 Entering Link 1 = /afs/math/software/gaussian/g16.A03/g16/l1.exe PID=     24001.
  
 Copyright (c) 1988,1990,1992,1993,1995,1998,2003,2009,2016,
            Gaussian, Inc.  All Rights Reserved.
  
 This is part of the Gaussian(R) 16 program.  It is based on
 the Gaussian(R) 09 system (copyright 2009, Gaussian, Inc.),
 the Gaussian(R) 03 system (copyright 2003, Gaussian, Inc.),
 the Gaussian(R) 98 system (copyright 1998, Gaussian, Inc.),
 the Gaussian(R) 94 system (copyright 1995, Gaussian, Inc.),
 the Gaussian 92(TM) system (copyright 1992, Gaussian, Inc.),
 the Gaussian 90(TM) system (copyright 1990, Gaussian, Inc.),
 the Gaussian 88(TM) system (copyright 1988, Gaussian, Inc.),
 the Gaussian 86(TM) system (copyright 1986, Carnegie Mellon
 University), and the Gaussian 82(TM) system (copyright 1983,
 Carnegie Mellon University). Gaussian is a federally registered
 trademark of Gaussian, Inc.
  
 This software contains proprietary and confidential information,
 including trade secrets, belonging to Gaussian, Inc.
  
 This software is provided under written license and may be
 used, copied, transmitted, or stored only in accord with that
 written license.
  
 The following legend is applicable only to US Government
 contracts under FAR:
  
                    RESTRICTED RIGHTS LEGEND
  
 Use, reproduction and disclosure by the US Government is
 subject to restrictions as set forth in subparagraphs (a)
 and (c) of the Commercial Computer Software - Restricted
 Rights clause in FAR 52.227-19.
  
 Gaussian, Inc.
 340 Quinnipiac St., Bldg. 40, Wallingford CT 06492
  
  
 ---------------------------------------------------------------
 Warning -- This program may not be used in any manner that
 competes with the business of Gaussian, Inc. or will provide
 assistance to any competitor of Gaussian, Inc.  The licensee
 of this program is prohibited from giving any competitor of
 Gaussian, Inc. access to this program.  By using this program,
 the user acknowledges that Gaussian, Inc. is engaged in the
 business of creating and licensing software in the field of
 computational chemistry and represents and warrants to the
 licensee that it is not a competitor of Gaussian, Inc. and that
 it will not use this program in any manner prohibited above.
 ---------------------------------------------------------------
  

 Cite this work as:
 Gaussian 16, Revision A.03,
 M. J. Frisch, G. W. Trucks, H. B. Schlegel, G. E. Scuseria, 
 M. A. Robb, J. R. Cheeseman, G. Scalmani, V. Barone, 
 G. A. Petersson, H. Nakatsuji, X. Li, M. Caricato, A. V. Marenich, 
 J. Bloino, B. G. Janesko, R. Gomperts, B. Mennucci, H. P. Hratchian, 
 J. V. Ortiz, A. F. Izmaylov, J. L. Sonnenberg, D. Williams-Young, 
 F. Ding, F. Lipparini, F. Egidi, J. Goings, B. Peng, A. Petrone, 
 T. Henderson, D. Ranasinghe, V. G. Zakrzewski, J. Gao, N. Rega, 
 G. Zheng, W. Liang, M. Hada, M. Ehara, K. Toyota, R. Fukuda, 
 J. Hasegawa, M. Ishida, T. Nakajima, Y. Honda, O. Kitao, H. Nakai, 
 T. Vreven, K. Throssell, J. A. Montgomery, Jr., J. E. Peralta, 
 F. Ogliaro, M. J. Bearpark, J. J. Heyd, E. N. Brothers, K. N. Kudin, 
 V. N. Staroverov, T. A. Keith, R. Kobayashi, J. Normand, 
 K. Raghavachari, A. P. Rendell, J. C. Burant, S. S. Iyengar, 
 J. Tomasi, M. Cossi, J. M. Millam, M. Klene, C. Adamo, R. Cammi, 
 J. W. Ochterski, R. L. Martin, K. Morokuma, O. Farkas, 
 J. B. Foresman, and D. J. Fox, Gaussian, Inc., Wallingford CT, 2016.
 
 ******************************************
 Gaussian 16:  ES64L-G16RevA.03 25-Dec-2016
                20-Jan-2023 
 ******************************************
 %nprocs=12
 Will use up to   12 processors via shared memory.
 %mem=16GB
 %chk=1ccg_II_Q.chk
 ----------------------------------------------------------------------
 # PBE1PBE/def2TZVP empiricaldispersion=GD3BJ int=(grid=ultrafine) geom
 =check guess=read scrf=(smd,solvent=Chloroform)
 ----------------------------------------------------------------------
 1/29=2,38=1,172=1/1;
 2/12=2,40=1/2;
 3/5=44,7=101,11=2,14=-4,25=1,30=1,70=32201,72=7,74=-13,75=-5,116=-2,124=41/1,2,3;
 4/5=1/1;
 5/5=2,38=6,53=7/2;
 6/7=2,8=2,9=2,10=2,28=1/1;
 99/5=1,9=1/99;
 --------------
 1ccg_II_Q_solv
 --------------
 Structure from the checkpoint file:  "1ccg_II_Q.chk"
 Charge =  0 Multiplicity = 5
 Z-Matrix found in chk file.
 C,0,-5.506,53.923,112.93
 C,0,-7.562,57.972,114.377998
 C,0,-5.926,60.125999,110.472
 C,0,-3.654,56.113998,109.164001
 C,0,-6.228,54.827,113.697998
 C,0,-6.758,54.532001,114.942001
 C,0,-7.395,55.715,115.374001
 C,0,-7.147,56.641998,114.369003
 C,0,-8.23,55.922001,116.644997
 C,0,-6.626,53.173,115.640999
 C,0,-5.472,53.012001,116.584
 C,0,-5.394,51.617001,117.223999
 O,0,-6.246,51.259998,118.040001
 O,0,-4.475,50.847,116.942001
 C,0,-7.381,58.931999,113.375999
 C,0,-7.941,60.210999,113.411003
 C,0,-7.522,60.812,112.232002
 C,0,-6.685,59.879002,111.612
 C,0,-8.919,60.678001,114.485001
 C,0,-7.826,62.055,111.651001
 C,0,-8.743,63.063999,112.110001
 C,0,-5.081,59.252998,109.775002
 C,0,-4.298,59.622002,108.682999
 C,0,-3.589,58.445999,108.365997
 C,0,-4.047,57.462002,109.228996
 C,0,-4.188,61.047001,108.081001
 C,0,-2.635,58.152,107.377998
 C,0,-2.272,58.924,106.227997
 C,0,-4.,55.082001,110.014
 C,0,-3.674,53.752998,109.834
 C,0,-4.208,53.123001,110.963997
 C,0,-4.83,54.109001,111.714996
 C,0,-3.02,53.098999,108.612999
 C,0,-4.19,51.630001,111.269997
 C,0,-3.016,51.229,112.144997
 C,0,-3.008,49.790001,112.600998
 O,0,-2.443,49.528,113.656998
 O,0,-3.547,48.922001,111.917999
 N,0,-6.462,56.099998,113.359001
 N,0,-6.701,58.710999,112.254997
 N,0,-4.921,57.955002,110.103996
 N,0,-4.723,55.273998,111.115997
 Fe,0,-5.857,56.937,111.602997
 N,0,-9.264,56.771999,109.591003
 C,0,-8.576,56.827999,110.692001
 N,0,-7.374,56.400002,110.419998
 C,0,-7.308,56.078999,109.165001
 C,0,-8.548,56.317001,108.603996
 H,0,-10.166,57.108002,109.492996
 O,0,-4.422,57.485001,112.862
 H,0,-8.85064843,56.16247539,107.58938979
 H,0,-6.44757431,55.69817754,108.65554772
 H,0,-8.92966584,57.16293345,111.6447021
 H,0,-8.47703616,61.47303368,115.04846439
 H,0,-9.81819471,61.02643021,114.02137835
 H,0,-9.14761543,59.86203563,115.13832749
 H,0,-8.42477212,64.08300091,112.18256908
 H,0,-9.74325724,62.79545327,112.37882928
 H,0,-7.30480636,62.28163653,110.74441781
 H,0,-5.99760269,61.11670074,110.07415189
 H,0,-3.29125105,61.12135216,107.50202499
 H,0,-5.03415292,61.23551722,107.45379539
 H,0,-4.16270198,61.7673059,108.87183655
 H,0,-1.30666668,58.80008259,105.78338924
 H,0,-2.9660696,59.62481928,105.8132444
 H,0,-2.10950113,57.22809341,107.5010734
 H,0,-3.00493131,55.8547559,108.35381376
 H,0,-2.07770052,52.67820197,108.89566761
 H,0,-3.65773385,52.32595592,108.23803241
 H,0,-2.86771719,53.83599136,107.8523728
 H,0,-4.13470648,51.0890761,110.34845325
 H,0,-5.09898196,51.36890342,111.77047662
 H,0,-2.11413607,51.41183062,111.59899845
 H,0,-3.01659566,51.85485271,113.01287259
 H,0,-3.57066867,57.92866188,112.862
 H,0,-5.12406459,58.13975691,112.862
 H,0,-7.52743218,52.99509964,116.1893342
 H,0,-6.54208858,52.42010505,114.88534824
 H,0,-4.56411051,53.19346777,116.04761721
 H,0,-5.56200633,53.74079509,117.36224034
 H,0,-3.56332963,51.1294171,117.04543081
 H,0,-7.6910114,56.54435544,117.32841945
 H,0,-9.15708263,56.39154393,116.39014951
 H,0,-8.42404701,54.97441953,117.10252855
 H,0,-5.45781913,52.93038165,113.32659478
 H,0,-8.08069943,58.29811494,115.25520946
 H,0,-3.01035017,48.29644599,111.42577153
 Recover connectivity data from disk.
 Stoichiometry    C37H38FeN6O5(5)
 Framework group  C1[X(C37H38FeN6O5)]
 Deg. of freedom   255
 Full point group                 C1      NOp   1
 Largest Abelian subgroup         C1      NOp   1
 Largest concise Abelian subgroup C1      NOp   1
                         Standard orientation:                         
 ---------------------------------------------------------------------
 Center     Atomic      Atomic             Coordinates (Angstroms)
 Number     Number       Type             X           Y           Z
 ---------------------------------------------------------------------
      1          6           0       -2.347125   -0.118396    0.266940
      2          6           0        1.032194   -3.442471   -0.232027
      3          6           0        4.275182    0.005496   -0.641394
      4          6           0        0.830362    3.328305   -0.394087
      5          6           0       -1.729458   -1.358472    0.171965
      6          6           0       -2.412739   -2.562007    0.162091
      7          6           0       -1.422406   -3.560337    0.041847
      8          6           0       -0.224284   -2.864462   -0.063560
      9          6           0       -1.613800   -5.082680    0.078513
     10          6           0       -3.937964   -2.694353    0.257386
     11          6           0       -4.688401   -2.763664   -1.038349
     12          6           0       -6.211037   -2.869786   -0.859397
     13          8           0       -6.711277   -3.895741   -0.394219
     14          8           0       -6.948730   -1.940814   -1.190766
     15          6           0        2.270839   -2.794451   -0.296754
     16          6           0        3.497948   -3.460056   -0.339653
     17          6           0        4.446935   -2.447990   -0.383850
     18          6           0        3.720421   -1.254340   -0.437084
     19          6           0        3.646563   -4.971920   -0.197434
     20          6           0        5.851584   -2.474407   -0.347923
     21          6           0        6.727707   -3.604065   -0.186895
     22          6           0        3.632690    1.249217   -0.689602
     23          6           0        4.271535    2.452891   -0.980752
     24          6           0        3.226112    3.397974   -0.972701
     25          6           0        2.075418    2.713403   -0.612078
     26          6           0        5.770182    2.624982   -1.340702
     27          6           0        3.199991    4.783928   -1.198846
     28          6           0        4.299397    5.698136   -1.274909
     29          6           0       -0.378363    2.728224   -0.100626
     30          6           0       -1.546122    3.392460    0.215689
     31          6           0       -2.479160    2.363206    0.386050
     32          6           0       -1.799967    1.170766    0.186393
     33          6           0       -1.739767    4.890045    0.472621
     34          6           0       -3.938533    2.514034    0.798953
     35          6           0       -4.877845    2.571364   -0.392311
     36          6           0       -6.349898    2.583826   -0.058214
     37          8           0       -7.128233    2.125592   -0.887203
     38          8           0       -6.737399    3.050903    1.010484
     39          7           0       -0.412049   -1.545883    0.032290
     40          7           0        2.415914   -1.473068   -0.268700
     41          7           0        2.310920    1.410121   -0.475905
     42          7           0       -0.533349    1.405621   -0.074350
     43         26           0        0.953183   -0.034102    0.003887
     44          7           0        2.276907   -0.277308    3.728347
     45          6           0        1.739951   -0.785012    2.659426
     46          7           0        1.249957    0.204439    1.964542
     47          6           0        1.475700    1.318734    2.588883
     48          6           0        2.151214    1.017798    3.755969
     49          1           0        2.783842   -0.783995    4.378264
     50          8           0        0.649681   -0.381031   -1.927989
     51          1           0        2.493080    1.695089    4.510491
     52          1           0        1.190018    2.295773    2.259216
     53          1           0        1.706009   -1.821978    2.397798
     54          1           0        4.036987   -5.379027   -1.106683
     55          1           0        4.316568   -5.190269    0.607748
     56          1           0        2.690355   -5.406696    0.006369
     57          1           0        7.545125   -3.747698   -0.862245
     58          1           0        6.561914   -4.300635    0.608216
     59          1           0        6.334902   -1.525789   -0.454819
     60          1           0        5.335890    0.026968   -0.780450
     61          1           0        5.911760    3.560275   -1.840784
     62          1           0        6.356326    2.606751   -0.445715
     63          1           0        6.076446    1.826653   -1.983954
     64          1           0        4.195806    6.615671   -1.815556
     65          1           0        5.224549    5.463761   -0.791110
     66          1           0        2.229263    5.213871   -1.332024
     67          1           0        0.817472    4.395915   -0.464378
     68          1           0       -2.406652    5.294310   -0.260000
     69          1           0       -2.152999    5.033893    1.449067
     70          1           0       -0.794918    5.388062    0.408275
     71          1           0       -4.045595    3.414449    1.367012
     72          1           0       -4.211252    1.682223    1.414270
     73          1           0       -4.654454    3.455456   -0.952114
     74          1           0       -4.682963    1.721900   -1.013063
     75          1           0        0.886715   -0.024905   -2.787401
     76          1           0        1.362297   -0.936939   -1.604347
     77          1           0       -4.158022   -3.581327    0.813940
     78          1           0       -4.308133   -1.855251    0.808549
     79          1           0       -4.471352   -1.883521   -1.606801
     80          1           0       -4.347969   -3.617857   -1.585488
     81          1           0       -6.909489   -1.591975   -2.084283
     82          1           0       -1.445035   -5.486987   -0.897681
     83          1           0       -0.917970   -5.513132    0.768028
     84          1           0       -2.611831   -5.309261    0.390754
     85          1           0       -3.404677   -0.151315    0.426314
     86          1           0        1.052471   -4.508431   -0.322680
     87          1           0       -7.188037    3.898366    1.028699
 ---------------------------------------------------------------------
 Rotational constants (GHZ):           0.0821145           0.0475077           0.0339279
 Standard basis: def2TZVP (5D, 7F)
 There are  2008 symmetry adapted cartesian basis functions of A   symmetry.
 There are  1761 symmetry adapted basis functions of A   symmetry.
  1761 basis functions,  2854 primitive gaussians,  2008 cartesian basis functions
   186 alpha electrons      182 beta electrons
       nuclear repulsion energy      7372.7539489848 Hartrees.
 NAtoms=   87 NActive=   87 NUniq=   87 SFac= 1.00D+00 NAtFMM=   60 NAOKFM=T Big=T
 Integral buffers will be    131072 words long.
 Raffenetti 2 integral format.
 Two-electron integral symmetry is turned on.
 Nuclear repulsion after empirical dispersion term =     7372.6319724319 Hartrees.
 ------------------------------------------------------------------------------
 Polarizable Continuum Model (PCM)
 =================================
 Model                : PCM.
 Atomic radii         : SMD-Coulomb.
 Polarization charges : Total charges.
 Charge compensation  : None.
 Solution method      : On-the-fly selection.
 Cavity type          : VdW (van der Waals Surface) (Alpha=1.000).
 Cavity algorithm     : GePol (No added spheres)
                        Default sphere list used, NSphG=   87.
                        Lebedev-Laikov grids with approx.  5.0 points / Ang**2.
                        Smoothing algorithm: York/Karplus (Gamma=1.0000).
                        Polarization charges: spherical gaussians, with
                                              point-specific exponents (IZeta= 3).
                        Self-potential: point-specific (ISelfS= 7).
                        Self-field    : sphere-specific E.n sum rule (ISelfD= 2).
 Solvent              : Chloroform, Eps=   4.711300 Eps(inf)=   2.090627
 ------------------------------------------------------------------------------
 ------------------------------------------------------------------------------
 Atomic radii for non-electrostatic terms: SMD-CDS.
 ------------------------------------------------------------------------------
 Nuclear repulsion after PCM non-electrostatic terms =     7372.6122320347 Hartrees.
 One-electron integrals computed using PRISM.
   1 Symmetry operations used in ECPInt.
 ECPInt:  NShTT=  241860 NPrTT=  750929 LenC2=  176505 LenP2D=  356554.
 LDataN:  DoStor=T MaxTD1= 6 Len=  172
 NBasis=  1761 RedAO= T EigKep=  2.72D-06  NBF=  1761
 NBsUse=  1761 1.00D-06 EigRej= -1.00D+00 NBFU=  1761
 Initial guess from the checkpoint file:  "1ccg_II_Q.chk"
 B after Tr=     0.000000    0.000000   -0.000000
         Rot=    1.000000    0.000000    0.000000    0.000000 Ang=   0.00 deg.
 Initial guess <Sx>= 0.0000 <Sy>= 0.0000 <Sz>= 2.0000 <S**2>= 6.2553 S= 2.0505
 Requested convergence on RMS density matrix=1.00D-08 within 128 cycles.
 Requested convergence on MAX density matrix=1.00D-06.
 Requested convergence on             energy=1.00D-06.
 No special actions if energy rises.
 Inv3:  Mode=1 IEnd=   118956627.
 Iteration    1 A*A^-1 deviation from unit magnitude is 4.11D-15 for   2177.
 Iteration    1 A*A^-1 deviation from orthogonality  is 2.56D-15 for   3153     76.
 Iteration    1 A^-1*A deviation from unit magnitude is 3.77D-15 for   3072.
 Iteration    1 A^-1*A deviation from orthogonality  is 7.41D-15 for   3838   3753.
 Restarting incremental Fock formation.
 Error on total polarization charges =  0.06373
 SCF Done:  E(UPBE1PBE) =  -3399.34997088     A.U. after   37 cycles
            NFock= 37  Conv=0.15D-08     -V/T= 2.0025
 <Sx>= 0.0000 <Sy>= 0.0000 <Sz>= 2.0000 <S**2>= 6.2309 S= 2.0458
 <L.S>= 0.000000000000E+00
 SMD-CDS (non-electrostatic) energy       (kcal/mol) =     -12.39
 (included in total energy above)
 Annihilation of the first spin contaminant:
 S**2 before annihilation     6.2309,   after     6.0146

 **********************************************************************

            Population analysis using the SCF density.

 **********************************************************************

 Orbital symmetries:
 Alpha Orbitals:
       Occupied  (A) (A) (A) (A) (A) (A) (A) (A) (A) (A) (A) (A)
                 (A) (A) (A) (A) (A) (A) (A) (A) (A) (A) (A) (A)
                 (A) (A) (A) (A) (A) (A) (A) (A) (A) (A) (A) (A)
                 (A) (A) (A) (A) (A) (A) (A) (A) (A) (A) (A) (A)
                 (A) (A) (A) (A) (A) (A) (A) (A) (A) (A) (A) (A)
                 (A) (A) (A) (A) (A) (A) (A) (A) (A) (A) (A) (A)
                 (A) (A) (A) (A) (A) (A) (A) (A) (A) (A) (A) (A)
                 (A) (A) (A) (A) (A) (A) (A) (A) (A) (A) (A) (A)
                 (A) (A) (A) (A) (A) (A) (A) (A) (A) (A) (A) (A)
                 (A) (A) (A) (A) (A) (A) (A) (A) (A) (A) (A) (A)
                 (A) (A) (A) (A) (A) (A) (A) (A) (A) (A) (A) (A)
                 (A) (A) (A) (A) (A) (A) (A) (A) (A) (A) (A) (A)
                 (A) (A) (A) (A) (A) (A) (A) (A) (A) (A) (A) (A)
                 (A) (A) (A) (A) (A) (A) (A) (A) (A) (A) (A) (A)
                 (A) (A) (A) (A) (A) (A) (A) (A) (A) (A) (A) (A)
                 (A) (A) (A) (A) (A) (A)
       Virtual   (A) (A) (A) (A) (A) (A) (A) (A) (A) (A) (A) (A)
                 (A) (A) (A) (A) (A) (A) (A) (A) (A) (A) (A) (A)
                 (A) (A) (A) (A) (A) (A) (A) (A) (A) (A) (A) (A)
                 (A) (A) (A) (A) (A) (A) (A) (A) (A) (A) (A) (A)
                 (A) (A) (A) (A) (A) (A) (A) (A) (A) (A) (A) (A)
                 (A) (A) (A) (A) (A) (A) (A) (A) (A) (A) (A) (A)
                 (A) (A) (A) (A) (A) (A) (A) (A) (A) (A) (A) (A)
                 (A) (A) (A) (A) (A) (A) (A) (A) (A) (A) (A) (A)
                 (A) (A) (A) (A) (A) (A) (A) (A) (A) (A) (A) (A)
                 (A) (A) (A) (A) (A) (A) (A) (A) (A) (A) (A) (A)
                 (A) (A) (A) (A) (A) (A) (A) (A) (A) (A) (A) (A)
                 (A) (A) (A) (A) (A) (A) (A) (A) (A) (A) (A) (A)
                 (A) (A) (A) (A) (A) (A) (A) (A) (A) (A) (A) (A)
                 (A) (A) (A) (A) (A) (A) (A) (A) (A) (A) (A) (A)
                 (A) (A) (A) (A) (A) (A) (A) (A) (A) (A) (A) (A)
                 (A) (A) (A) (A) (A) (A) (A) (A) (A) (A) (A) (A)
                 (A) (A) (A) (A) (A) (A) (A) (A) (A) (A) (A) (A)
                 (A) (A) (A) (A) (A) (A) (A) (A) (A) (A) (A) (A)
                 (A) (A) (A) (A) (A) (A) (A) (A) (A) (A) (A) (A)
                 (A) (A) (A) (A) (A) (A) (A) (A) (A) (A) (A) (A)
                 (A) (A) (A) (A) (A) (A) (A) (A) (A) (A) (A) (A)
                 (A) (A) (A) (A) (A) (A) (A) (A) (A) (A) (A) (A)
                 (A) (A) (A) (A) (A) (A) (A) (A) (A) (A) (A) (A)
                 (A) (A) (A) (A) (A) (A) (A) (A) (A) (A) (A) (A)
                 (A) (A) (A) (A) (A) (A) (A) (A) (A) (A) (A) (A)
                 (A) (A) (A) (A) (A) (A) (A) (A) (A) (A) (A) (A)
                 (A) (A) (A) (A) (A) (A) (A) (A) (A) (A) (A) (A)
                 (A) (A) (A) (A) (A) (A) (A) (A) (A) (A) (A) (A)
                 (A) (A) (A) (A) (A) (A) (A) (A) (A) (A) (A) (A)
                 (A) (A) (A) (A) (A) (A) (A) (A) (A) (A) (A) (A)
                 (A) (A) (A) (A) (A) (A) (A) (A) (A) (A) (A) (A)
                 (A) (A) (A) (A) (A) (A) (A) (A) (A) (A) (A) (A)
                 (A) (A) (A) (A) (A) (A) (A) (A) (A) (A) (A) (A)
                 (A) (A) (A) (A) (A) (A) (A) (A) (A) (A) (A) (A)
                 (A) (A) (A) (A) (A) (A) (A) (A) (A) (A) (A) (A)
                 (A) (A) (A) (A) (A) (A) (A) (A) (A) (A) (A) (A)
                 (A) (A) (A) (A) (A) (A) (A) (A) (A) (A) (A) (A)
                 (A) (A) (A) (A) (A) (A) (A) (A) (A) (A) (A) (A)
                 (A) (A) (A) (A) (A) (A) (A) (A) (A) (A) (A) (A)
                 (A) (A) (A) (A) (A) (A) (A) (A) (A) (A) (A) (A)
                 (A) (A) (A) (A) (A) (A) (A) (A) (A) (A) (A) (A)
                 (A) (A) (A) (A) (A) (A) (A) (A) (A) (A) (A) (A)
                 (A) (A) (A) (A) (A) (A) (A) (A) (A) (A) (A) (A)
                 (A) (A) (A) (A) (A) (A) (A) (A) (A) (A) (A) (A)
                 (A) (A) (A) (A) (A) (A) (A) (A) (A) (A) (A) (A)
                 (A) (A) (A) (A) (A) (A) (A) (A) (A) (A) (A) (A)
                 (A) (A) (A) (A) (A) (A) (A) (A) (A) (A) (A) (A)
                 (A) (A) (A) (A) (A) (A) (A) (A) (A) (A) (A) (A)
                 (A) (A) (A) (A) (A) (A) (A) (A) (A) (A) (A) (A)
                 (A) (A) (A) (A) (A) (A) (A) (A) (A) (A) (A) (A)
                 (A) (A) (A) (A) (A) (A) (A) (A) (A) (A) (A) (A)
                 (A) (A) (A) (A) (A) (A) (A) (A) (A) (A) (A) (A)
                 (A) (A) (A) (A) (A) (A) (A) (A) (A) (A) (A) (A)
                 (A) (A) (A) (A) (A) (A) (A) (A) (A) (A) (A) (A)
                 (A) (A) (A) (A) (A) (A) (A) (A) (A) (A) (A) (A)
                 (A) (A) (A) (A) (A) (A) (A) (A) (A) (A) (A) (A)
                 (A) (A) (A) (A) (A) (A) (A) (A) (A) (A) (A) (A)
                 (A) (A) (A) (A) (A) (A) (A) (A) (A) (A) (A) (A)
                 (A) (A) (A) (A) (A) (A) (A) (A) (A) (A) (A) (A)
                 (A) (A) (A) (A) (A) (A) (A) (A) (A) (A) (A) (A)
                 (A) (A) (A) (A) (A) (A) (A) (A) (A) (A) (A) (A)
                 (A) (A) (A) (A) (A) (A) (A) (A) (A) (A) (A) (A)
                 (A) (A) (A) (A) (A) (A) (A) (A) (A) (A) (A) (A)
                 (A) (A) (A) (A) (A) (A) (A) (A) (A) (A) (A) (A)
                 (A) (A) (A) (A) (A) (A) (A) (A) (A) (A) (A) (A)
                 (A) (A) (A) (A) (A) (A) (A) (A) (A) (A) (A) (A)
                 (A) (A) (A) (A) (A) (A) (A) (A) (A) (A) (A) (A)
                 (A) (A) (A) (A) (A) (A) (A) (A) (A) (A) (A) (A)
                 (A) (A) (A) (A) (A) (A) (A) (A) (A) (A) (A) (A)
                 (A) (A) (A) (A) (A) (A) (A) (A) (A) (A) (A) (A)
                 (A) (A) (A) (A) (A) (A) (A) (A) (A) (A) (A) (A)
                 (A) (A) (A) (A) (A) (A) (A) (A) (A) (A) (A) (A)
                 (A) (A) (A) (A) (A) (A) (A) (A) (A) (A) (A) (A)
                 (A) (A) (A) (A) (A) (A) (A) (A) (A) (A) (A) (A)
                 (A) (A) (A) (A) (A) (A) (A) (A) (A) (A) (A) (A)
                 (A) (A) (A) (A) (A) (A) (A) (A) (A) (A) (A) (A)
                 (A) (A) (A) (A) (A) (A) (A) (A) (A) (A) (A) (A)
                 (A) (A) (A) (A) (A) (A) (A) (A) (A) (A) (A) (A)
                 (A) (A) (A) (A) (A) (A) (A) (A) (A) (A) (A) (A)
                 (A) (A) (A) (A) (A) (A) (A) (A) (A) (A) (A) (A)
                 (A) (A) (A) (A) (A) (A) (A) (A) (A) (A) (A) (A)
                 (A) (A) (A) (A) (A) (A) (A) (A) (A) (A) (A) (A)
                 (A) (A) (A) (A) (A) (A) (A) (A) (A) (A) (A) (A)
                 (A) (A) (A) (A) (A) (A) (A) (A) (A) (A) (A) (A)
                 (A) (A) (A) (A) (A) (A) (A) (A) (A) (A) (A) (A)
                 (A) (A) (A) (A) (A) (A) (A) (A) (A) (A) (A) (A)
                 (A) (A) (A) (A) (A) (A) (A) (A) (A) (A) (A) (A)
                 (A) (A) (A) (A) (A) (A) (A) (A) (A) (A) (A) (A)
                 (A) (A) (A) (A) (A) (A) (A) (A) (A) (A) (A) (A)
                 (A) (A) (A) (A) (A) (A) (A) (A) (A) (A) (A) (A)
                 (A) (A) (A) (A) (A) (A) (A) (A) (A) (A) (A) (A)
                 (A) (A) (A) (A) (A) (A) (A) (A) (A) (A) (A) (A)
                 (A) (A) (A) (A) (A) (A) (A) (A) (A) (A) (A) (A)
                 (A) (A) (A) (A) (A) (A) (A) (A) (A) (A) (A) (A)
                 (A) (A) (A) (A) (A) (A) (A) (A) (A) (A) (A) (A)
                 (A) (A) (A) (A) (A) (A) (A) (A) (A) (A) (A) (A)
                 (A) (A) (A) (A) (A) (A) (A) (A) (A) (A) (A) (A)
                 (A) (A) (A) (A) (A) (A) (A) (A) (A) (A) (A) (A)
                 (A) (A) (A) (A) (A) (A) (A) (A) (A) (A) (A) (A)
                 (A) (A) (A) (A) (A) (A) (A) (A) (A) (A) (A) (A)
                 (A) (A) (A) (A) (A) (A) (A) (A) (A) (A) (A) (A)
                 (A) (A) (A) (A) (A) (A) (A) (A) (A) (A) (A) (A)
                 (A) (A) (A) (A) (A) (A) (A) (A) (A) (A) (A) (A)
                 (A) (A) (A) (A) (A) (A) (A) (A) (A) (A) (A) (A)
                 (A) (A) (A) (A) (A) (A) (A) (A) (A) (A) (A) (A)
                 (A) (A) (A) (A) (A) (A) (A) (A) (A) (A) (A) (A)
                 (A) (A) (A) (A) (A) (A) (A) (A) (A) (A) (A) (A)
                 (A) (A) (A) (A) (A) (A) (A) (A) (A) (A) (A) (A)
                 (A) (A) (A) (A) (A) (A) (A) (A) (A) (A) (A) (A)
                 (A) (A) (A) (A) (A) (A) (A) (A) (A) (A) (A) (A)
                 (A) (A) (A) (A) (A) (A) (A) (A) (A) (A) (A) (A)
                 (A) (A) (A) (A) (A) (A) (A) (A) (A) (A) (A) (A)
                 (A) (A) (A) (A) (A) (A) (A) (A) (A) (A) (A) (A)
                 (A) (A) (A) (A) (A) (A) (A) (A) (A) (A) (A) (A)
                 (A) (A) (A) (A) (A) (A) (A) (A) (A) (A) (A) (A)
                 (A) (A) (A) (A) (A) (A) (A) (A) (A) (A) (A) (A)
                 (A) (A) (A) (A) (A) (A) (A) (A) (A) (A) (A) (A)
                 (A) (A) (A) (A) (A) (A) (A) (A) (A) (A) (A) (A)
                 (A) (A) (A) (A) (A) (A) (A) (A) (A) (A) (A) (A)
                 (A) (A) (A) (A) (A) (A) (A) (A) (A) (A) (A) (A)
                 (A) (A) (A) (A) (A) (A) (A) (A) (A) (A) (A) (A)
                 (A) (A) (A) (A) (A) (A) (A) (A) (A) (A) (A) (A)
                 (A) (A) (A) (A) (A) (A) (A) (A) (A) (A) (A) (A)
                 (A) (A) (A) (A) (A) (A) (A) (A) (A) (A) (A) (A)
                 (A) (A) (A) (A) (A) (A) (A) (A) (A) (A) (A) (A)
                 (A) (A) (A) (A) (A) (A) (A) (A) (A) (A) (A) (A)
                 (A) (A) (A) (A) (A) (A) (A) (A) (A) (A) (A) (A)
                 (A) (A) (A) (A) (A) (A) (A) (A) (A) (A) (A) (A)
                 (A) (A) (A) (A) (A) (A) (A) (A) (A) (A) (A) (A)
                 (A) (A) (A) (A) (A) (A) (A) (A) (A) (A) (A) (A)
                 (A) (A) (A) (A) (A) (A) (A) (A) (A) (A) (A) (A)
                 (A) (A) (A)
 Beta  Orbitals:
       Occupied  (A) (A) (A) (A) (A) (A) (A) (A) (A) (A) (A) (A)
                 (A) (A) (A) (A) (A) (A) (A) (A) (A) (A) (A) (A)
                 (A) (A) (A) (A) (A) (A) (A) (A) (A) (A) (A) (A)
                 (A) (A) (A) (A) (A) (A) (A) (A) (A) (A) (A) (A)
                 (A) (A) (A) (A) (A) (A) (A) (A) (A) (A) (A) (A)
                 (A) (A) (A) (A) (A) (A) (A) (A) (A) (A) (A) (A)
                 (A) (A) (A) (A) (A) (A) (A) (A) (A) (A) (A) (A)
                 (A) (A) (A) (A) (A) (A) (A) (A) (A) (A) (A) (A)
                 (A) (A) (A) (A) (A) (A) (A) (A) (A) (A) (A) (A)
                 (A) (A) (A) (A) (A) (A) (A) (A) (A) (A) (A) (A)
                 (A) (A) (A) (A) (A) (A) (A) (A) (A) (A) (A) (A)
                 (A) (A) (A) (A) (A) (A) (A) (A) (A) (A) (A) (A)
                 (A) (A) (A) (A) (A) (A) (A) (A) (A) (A) (A) (A)
                 (A) (A) (A) (A) (A) (A) (A) (A) (A) (A) (A) (A)
                 (A) (A) (A) (A) (A) (A) (A) (A) (A) (A) (A) (A)
                 (A) (A)
       Virtual   (A) (A) (A) (A) (A) (A) (A) (A) (A) (A) (A) (A)
                 (A) (A) (A) (A) (A) (A) (A) (A) (A) (A) (A) (A)
                 (A) (A) (A) (A) (A) (A) (A) (A) (A) (A) (A) (A)
                 (A) (A) (A) (A) (A) (A) (A) (A) (A) (A) (A) (A)
                 (A) (A) (A) (A) (A) (A) (A) (A) (A) (A) (A) (A)
                 (A) (A) (A) (A) (A) (A) (A) (A) (A) (A) (A) (A)
                 (A) (A) (A) (A) (A) (A) (A) (A) (A) (A) (A) (A)
                 (A) (A) (A) (A) (A) (A) (A) (A) (A) (A) (A) (A)
                 (A) (A) (A) (A) (A) (A) (A) (A) (A) (A) (A) (A)
                 (A) (A) (A) (A) (A) (A) (A) (A) (A) (A) (A) (A)
                 (A) (A) (A) (A) (A) (A) (A) (A) (A) (A) (A) (A)
                 (A) (A) (A) (A) (A) (A) (A) (A) (A) (A) (A) (A)
                 (A) (A) (A) (A) (A) (A) (A) (A) (A) (A) (A) (A)
                 (A) (A) (A) (A) (A) (A) (A) (A) (A) (A) (A) (A)
                 (A) (A) (A) (A) (A) (A) (A) (A) (A) (A) (A) (A)
                 (A) (A) (A) (A) (A) (A) (A) (A) (A) (A) (A) (A)
                 (A) (A) (A) (A) (A) (A) (A) (A) (A) (A) (A) (A)
                 (A) (A) (A) (A) (A) (A) (A) (A) (A) (A) (A) (A)
                 (A) (A) (A) (A) (A) (A) (A) (A) (A) (A) (A) (A)
                 (A) (A) (A) (A) (A) (A) (A) (A) (A) (A) (A) (A)
                 (A) (A) (A) (A) (A) (A) (A) (A) (A) (A) (A) (A)
                 (A) (A) (A) (A) (A) (A) (A) (A) (A) (A) (A) (A)
                 (A) (A) (A) (A) (A) (A) (A) (A) (A) (A) (A) (A)
                 (A) (A) (A) (A) (A) (A) (A) (A) (A) (A) (A) (A)
                 (A) (A) (A) (A) (A) (A) (A) (A) (A) (A) (A) (A)
                 (A) (A) (A) (A) (A) (A) (A) (A) (A) (A) (A) (A)
                 (A) (A) (A) (A) (A) (A) (A) (A) (A) (A) (A) (A)
                 (A) (A) (A) (A) (A) (A) (A) (A) (A) (A) (A) (A)
                 (A) (A) (A) (A) (A) (A) (A) (A) (A) (A) (A) (A)
                 (A) (A) (A) (A) (A) (A) (A) (A) (A) (A) (A) (A)
                 (A) (A) (A) (A) (A) (A) (A) (A) (A) (A) (A) (A)
                 (A) (A) (A) (A) (A) (A) (A) (A) (A) (A) (A) (A)
                 (A) (A) (A) (A) (A) (A) (A) (A) (A) (A) (A) (A)
                 (A) (A) (A) (A) (A) (A) (A) (A) (A) (A) (A) (A)
                 (A) (A) (A) (A) (A) (A) (A) (A) (A) (A) (A) (A)
                 (A) (A) (A) (A) (A) (A) (A) (A) (A) (A) (A) (A)
                 (A) (A) (A) (A) (A) (A) (A) (A) (A) (A) (A) (A)
                 (A) (A) (A) (A) (A) (A) (A) (A) (A) (A) (A) (A)
                 (A) (A) (A) (A) (A) (A) (A) (A) (A) (A) (A) (A)
                 (A) (A) (A) (A) (A) (A) (A) (A) (A) (A) (A) (A)
                 (A) (A) (A) (A) (A) (A) (A) (A) (A) (A) (A) (A)
                 (A) (A) (A) (A) (A) (A) (A) (A) (A) (A) (A) (A)
                 (A) (A) (A) (A) (A) (A) (A) (A) (A) (A) (A) (A)
                 (A) (A) (A) (A) (A) (A) (A) (A) (A) (A) (A) (A)
                 (A) (A) (A) (A) (A) (A) (A) (A) (A) (A) (A) (A)
                 (A) (A) (A) (A) (A) (A) (A) (A) (A) (A) (A) (A)
                 (A) (A) (A) (A) (A) (A) (A) (A) (A) (A) (A) (A)
                 (A) (A) (A) (A) (A) (A) (A) (A) (A) (A) (A) (A)
                 (A) (A) (A) (A) (A) (A) (A) (A) (A) (A) (A) (A)
                 (A) (A) (A) (A) (A) (A) (A) (A) (A) (A) (A) (A)
                 (A) (A) (A) (A) (A) (A) (A) (A) (A) (A) (A) (A)
                 (A) (A) (A) (A) (A) (A) (A) (A) (A) (A) (A) (A)
                 (A) (A) (A) (A) (A) (A) (A) (A) (A) (A) (A) (A)
                 (A) (A) (A) (A) (A) (A) (A) (A) (A) (A) (A) (A)
                 (A) (A) (A) (A) (A) (A) (A) (A) (A) (A) (A) (A)
                 (A) (A) (A) (A) (A) (A) (A) (A) (A) (A) (A) (A)
                 (A) (A) (A) (A) (A) (A) (A) (A) (A) (A) (A) (A)
                 (A) (A) (A) (A) (A) (A) (A) (A) (A) (A) (A) (A)
                 (A) (A) (A) (A) (A) (A) (A) (A) (A) (A) (A) (A)
                 (A) (A) (A) (A) (A) (A) (A) (A) (A) (A) (A) (A)
                 (A) (A) (A) (A) (A) (A) (A) (A) (A) (A) (A) (A)
                 (A) (A) (A) (A) (A) (A) (A) (A) (A) (A) (A) (A)
                 (A) (A) (A) (A) (A) (A) (A) (A) (A) (A) (A) (A)
                 (A) (A) (A) (A) (A) (A) (A) (A) (A) (A) (A) (A)
                 (A) (A) (A) (A) (A) (A) (A) (A) (A) (A) (A) (A)
                 (A) (A) (A) (A) (A) (A) (A) (A) (A) (A) (A) (A)
                 (A) (A) (A) (A) (A) (A) (A) (A) (A) (A) (A) (A)
                 (A) (A) (A) (A) (A) (A) (A) (A) (A) (A) (A) (A)
                 (A) (A) (A) (A) (A) (A) (A) (A) (A) (A) (A) (A)
                 (A) (A) (A) (A) (A) (A) (A) (A) (A) (A) (A) (A)
                 (A) (A) (A) (A) (A) (A) (A) (A) (A) (A) (A) (A)
                 (A) (A) (A) (A) (A) (A) (A) (A) (A) (A) (A) (A)
                 (A) (A) (A) (A) (A) (A) (A) (A) (A) (A) (A) (A)
                 (A) (A) (A) (A) (A) (A) (A) (A) (A) (A) (A) (A)
                 (A) (A) (A) (A) (A) (A) (A) (A) (A) (A) (A) (A)
                 (A) (A) (A) (A) (A) (A) (A) (A) (A) (A) (A) (A)
                 (A) (A) (A) (A) (A) (A) (A) (A) (A) (A) (A) (A)
                 (A) (A) (A) (A) (A) (A) (A) (A) (A) (A) (A) (A)
                 (A) (A) (A) (A) (A) (A) (A) (A) (A) (A) (A) (A)
                 (A) (A) (A) (A) (A) (A) (A) (A) (A) (A) (A) (A)
                 (A) (A) (A) (A) (A) (A) (A) (A) (A) (A) (A) (A)
                 (A) (A) (A) (A) (A) (A) (A) (A) (A) (A) (A) (A)
                 (A) (A) (A) (A) (A) (A) (A) (A) (A) (A) (A) (A)
                 (A) (A) (A) (A) (A) (A) (A) (A) (A) (A) (A) (A)
                 (A) (A) (A) (A) (A) (A) (A) (A) (A) (A) (A) (A)
                 (A) (A) (A) (A) (A) (A) (A) (A) (A) (A) (A) (A)
                 (A) (A) (A) (A) (A) (A) (A) (A) (A) (A) (A) (A)
                 (A) (A) (A) (A) (A) (A) (A) (A) (A) (A) (A) (A)
                 (A) (A) (A) (A) (A) (A) (A) (A) (A) (A) (A) (A)
                 (A) (A) (A) (A) (A) (A) (A) (A) (A) (A) (A) (A)
                 (A) (A) (A) (A) (A) (A) (A) (A) (A) (A) (A) (A)
                 (A) (A) (A) (A) (A) (A) (A) (A) (A) (A) (A) (A)
                 (A) (A) (A) (A) (A) (A) (A) (A) (A) (A) (A) (A)
                 (A) (A) (A) (A) (A) (A) (A) (A) (A) (A) (A) (A)
                 (A) (A) (A) (A) (A) (A) (A) (A) (A) (A) (A) (A)
                 (A) (A) (A) (A) (A) (A) (A) (A) (A) (A) (A) (A)
                 (A) (A) (A) (A) (A) (A) (A) (A) (A) (A) (A) (A)
                 (A) (A) (A) (A) (A) (A) (A) (A) (A) (A) (A) (A)
                 (A) (A) (A) (A) (A) (A) (A) (A) (A) (A) (A) (A)
                 (A) (A) (A) (A) (A) (A) (A) (A) (A) (A) (A) (A)
                 (A) (A) (A) (A) (A) (A) (A) (A) (A) (A) (A) (A)
                 (A) (A) (A) (A) (A) (A) (A) (A) (A) (A) (A) (A)
                 (A) (A) (A) (A) (A) (A) (A) (A) (A) (A) (A) (A)
                 (A) (A) (A) (A) (A) (A) (A) (A) (A) (A) (A) (A)
                 (A) (A) (A) (A) (A) (A) (A) (A) (A) (A) (A) (A)
                 (A) (A) (A) (A) (A) (A) (A) (A) (A) (A) (A) (A)
                 (A) (A) (A) (A) (A) (A) (A) (A) (A) (A) (A) (A)
                 (A) (A) (A) (A) (A) (A) (A) (A) (A) (A) (A) (A)
                 (A) (A) (A) (A) (A) (A) (A) (A) (A) (A) (A) (A)
                 (A) (A) (A) (A) (A) (A) (A) (A) (A) (A) (A) (A)
                 (A) (A) (A) (A) (A) (A) (A) (A) (A) (A) (A) (A)
                 (A) (A) (A) (A) (A) (A) (A) (A) (A) (A) (A) (A)
                 (A) (A) (A) (A) (A) (A) (A) (A) (A) (A) (A) (A)
                 (A) (A) (A) (A) (A) (A) (A) (A) (A) (A) (A) (A)
                 (A) (A) (A) (A) (A) (A) (A) (A) (A) (A) (A) (A)
                 (A) (A) (A) (A) (A) (A) (A) (A) (A) (A) (A) (A)
                 (A) (A) (A) (A) (A) (A) (A) (A) (A) (A) (A) (A)
                 (A) (A) (A) (A) (A) (A) (A) (A) (A) (A) (A) (A)
                 (A) (A) (A) (A) (A) (A) (A) (A) (A) (A) (A) (A)
                 (A) (A) (A) (A) (A) (A) (A) (A) (A) (A) (A) (A)
                 (A) (A) (A) (A) (A) (A) (A) (A) (A) (A) (A) (A)
                 (A) (A) (A) (A) (A) (A) (A) (A) (A) (A) (A) (A)
                 (A) (A) (A) (A) (A) (A) (A) (A) (A) (A) (A) (A)
                 (A) (A) (A) (A) (A) (A) (A) (A) (A) (A) (A) (A)
                 (A) (A) (A) (A) (A) (A) (A) (A) (A) (A) (A) (A)
                 (A) (A) (A) (A) (A) (A) (A) (A) (A) (A) (A) (A)
                 (A) (A) (A) (A) (A) (A) (A) (A) (A) (A) (A) (A)
                 (A) (A) (A) (A) (A) (A) (A) (A) (A) (A) (A) (A)
                 (A) (A) (A) (A) (A) (A) (A) (A) (A) (A) (A) (A)
                 (A) (A) (A) (A) (A) (A) (A) (A) (A) (A) (A) (A)
                 (A) (A) (A) (A) (A) (A) (A) (A) (A) (A) (A) (A)
                 (A) (A) (A) (A) (A) (A) (A)
 The electronic state is 5-A.
 Alpha  occ. eigenvalues -- -256.42436 -30.23110 -26.06505 -26.04441 -26.04269
 Alpha  occ. eigenvalues --  -19.25040 -19.24897 -19.22154 -19.17942 -19.17587
 Alpha  occ. eigenvalues --  -14.45360 -14.40058 -14.38233 -14.38181 -14.37377
 Alpha  occ. eigenvalues --  -14.36985 -10.34751 -10.34687 -10.28526 -10.25256
 Alpha  occ. eigenvalues --  -10.24602 -10.24313 -10.24265 -10.24241 -10.24166
 Alpha  occ. eigenvalues --  -10.24142 -10.24027 -10.23976 -10.23570 -10.23039
 Alpha  occ. eigenvalues --  -10.22793 -10.22262 -10.22229 -10.22190 -10.22182
 Alpha  occ. eigenvalues --  -10.22093 -10.22064 -10.21910 -10.21888 -10.21722
 Alpha  occ. eigenvalues --  -10.21678 -10.21660 -10.21651 -10.21624 -10.21537
 Alpha  occ. eigenvalues --  -10.21281 -10.21133 -10.20970 -10.20901 -10.20639
 Alpha  occ. eigenvalues --  -10.20631 -10.20425 -10.20052  -3.62859  -2.42797
 Alpha  occ. eigenvalues --   -2.36813  -2.36535  -1.17434  -1.17109  -1.10858
 Alpha  occ. eigenvalues --   -1.07646  -1.03736  -1.03105  -1.01226  -1.00634
 Alpha  occ. eigenvalues --   -0.99904  -0.99405  -0.94882  -0.84448  -0.83423
 Alpha  occ. eigenvalues --   -0.83386  -0.82894  -0.82556  -0.81709  -0.81417
 Alpha  occ. eigenvalues --   -0.79757  -0.79316  -0.78674  -0.76991  -0.75469
 Alpha  occ. eigenvalues --   -0.75340  -0.73925  -0.72492  -0.71974  -0.71467
 Alpha  occ. eigenvalues --   -0.70111  -0.69360  -0.68895  -0.67574  -0.66997
 Alpha  occ. eigenvalues --   -0.66739  -0.65726  -0.65476  -0.64716  -0.62967
 Alpha  occ. eigenvalues --   -0.62385  -0.60731  -0.60477  -0.59062  -0.58899
 Alpha  occ. eigenvalues --   -0.57110  -0.55887  -0.54860  -0.54004  -0.53017
 Alpha  occ. eigenvalues --   -0.52824  -0.52666  -0.52466  -0.52115  -0.51273
 Alpha  occ. eigenvalues --   -0.50686  -0.50329  -0.49595  -0.49355  -0.49056
 Alpha  occ. eigenvalues --   -0.49004  -0.48785  -0.48664  -0.47834  -0.47170
 Alpha  occ. eigenvalues --   -0.46705  -0.46373  -0.46089  -0.45965  -0.45557
 Alpha  occ. eigenvalues --   -0.44860  -0.44647  -0.44481  -0.44227  -0.43939
 Alpha  occ. eigenvalues --   -0.43510  -0.43411  -0.42957  -0.42582  -0.42533
 Alpha  occ. eigenvalues --   -0.41933  -0.41849  -0.41474  -0.41149  -0.41042
 Alpha  occ. eigenvalues --   -0.40813  -0.40727  -0.40331  -0.39859  -0.39812
 Alpha  occ. eigenvalues --   -0.39472  -0.39401  -0.39235  -0.38971  -0.38459
 Alpha  occ. eigenvalues --   -0.38364  -0.38319  -0.38158  -0.37678  -0.37517
 Alpha  occ. eigenvalues --   -0.37037  -0.36910  -0.36526  -0.36217  -0.36040
 Alpha  occ. eigenvalues --   -0.35755  -0.34842  -0.34585  -0.34246  -0.33937
 Alpha  occ. eigenvalues --   -0.33716  -0.33495  -0.33114  -0.32685  -0.31967
 Alpha  occ. eigenvalues --   -0.31123  -0.30696  -0.29995  -0.28450  -0.28138
 Alpha  occ. eigenvalues --   -0.27941  -0.27823  -0.25769  -0.25104  -0.23964
 Alpha  occ. eigenvalues --   -0.23824  -0.22430  -0.21682  -0.20483  -0.19990
 Alpha  occ. eigenvalues --   -0.12851
 Alpha virt. eigenvalues --   -0.10488  -0.08462  -0.05635  -0.02607  -0.00513
 Alpha virt. eigenvalues --    0.00125   0.00466   0.01739   0.02841   0.03727
 Alpha virt. eigenvalues --    0.04420   0.04984   0.05456   0.05772   0.05938
 Alpha virt. eigenvalues --    0.06160   0.06393   0.06934   0.07258   0.07742
 Alpha virt. eigenvalues --    0.08181   0.08760   0.08864   0.09182   0.09283
 Alpha virt. eigenvalues --    0.09524   0.09840   0.09872   0.10223   0.10920
 Alpha virt. eigenvalues --    0.11104   0.11175   0.11498   0.11731   0.12041
 Alpha virt. eigenvalues --    0.12284   0.12727   0.13049   0.13318   0.13585
 Alpha virt. eigenvalues --    0.13661   0.13754   0.14160   0.14318   0.14506
 Alpha virt. eigenvalues --    0.14838   0.14895   0.15447   0.15622   0.15678
 Alpha virt. eigenvalues --    0.15730   0.16216   0.16400   0.16599   0.16804
 Alpha virt. eigenvalues --    0.17012   0.17317   0.17465   0.17559   0.17840
 Alpha virt. eigenvalues --    0.18288   0.18474   0.18887   0.19051   0.19282
 Alpha virt. eigenvalues --    0.19374   0.19488   0.19735   0.19935   0.20319
 Alpha virt. eigenvalues --    0.20583   0.20664   0.21000   0.21466   0.21513
 Alpha virt. eigenvalues --    0.22012   0.22127   0.22207   0.22429   0.22555
 Alpha virt. eigenvalues --    0.23086   0.23162   0.23200   0.23305   0.23495
 Alpha virt. eigenvalues --    0.23626   0.23918   0.24230   0.24425   0.24620
 Alpha virt. eigenvalues --    0.24707   0.25069   0.25350   0.25684   0.25994
 Alpha virt. eigenvalues --    0.26315   0.26670   0.26782   0.27166   0.27385
 Alpha virt. eigenvalues --    0.27523   0.27630   0.27751   0.27992   0.28136
 Alpha virt. eigenvalues --    0.28415   0.28553   0.29001   0.29196   0.29394
 Alpha virt. eigenvalues --    0.29649   0.29711   0.30010   0.30200   0.30669
 Alpha virt. eigenvalues --    0.30722   0.31081   0.31205   0.31350   0.31579
 Alpha virt. eigenvalues --    0.31937   0.32255   0.32534   0.32659   0.33173
 Alpha virt. eigenvalues --    0.33299   0.33583   0.33660   0.34118   0.34315
 Alpha virt. eigenvalues --    0.34570   0.35056   0.35140   0.35387   0.35615
 Alpha virt. eigenvalues --    0.35879   0.36090   0.36625   0.36924   0.37137
 Alpha virt. eigenvalues --    0.37258   0.37550   0.37825   0.38152   0.38326
 Alpha virt. eigenvalues --    0.38537   0.38795   0.38923   0.39122   0.39370
 Alpha virt. eigenvalues --    0.39425   0.39667   0.39960   0.40055   0.40161
 Alpha virt. eigenvalues --    0.40367   0.40697   0.40857   0.40889   0.41255
 Alpha virt. eigenvalues --    0.41430   0.41839   0.42033   0.42235   0.42475
 Alpha virt. eigenvalues --    0.42582   0.42936   0.43155   0.43315   0.43453
 Alpha virt. eigenvalues --    0.43496   0.43752   0.43859   0.44167   0.44569
 Alpha virt. eigenvalues --    0.44666   0.45053   0.45357   0.45478   0.45537
 Alpha virt. eigenvalues --    0.45657   0.45930   0.45993   0.46043   0.46198
 Alpha virt. eigenvalues --    0.46559   0.46884   0.47060   0.47309   0.47505
 Alpha virt. eigenvalues --    0.47632   0.47954   0.48093   0.48260   0.48571
 Alpha virt. eigenvalues --    0.48822   0.49019   0.49214   0.49372   0.49595
 Alpha virt. eigenvalues --    0.49636   0.49885   0.50063   0.50304   0.50463
 Alpha virt. eigenvalues --    0.50625   0.50941   0.51064   0.51229   0.51382
 Alpha virt. eigenvalues --    0.51672   0.51847   0.52016   0.52103   0.52459
 Alpha virt. eigenvalues --    0.52509   0.52813   0.52954   0.53099   0.53302
 Alpha virt. eigenvalues --    0.53356   0.53613   0.53742   0.54020   0.54301
 Alpha virt. eigenvalues --    0.54331   0.54666   0.55011   0.55281   0.55354
 Alpha virt. eigenvalues --    0.55663   0.55748   0.56190   0.56437   0.56652
 Alpha virt. eigenvalues --    0.56792   0.56924   0.57094   0.57493   0.57545
 Alpha virt. eigenvalues --    0.57869   0.58508   0.58764   0.59033   0.59258
 Alpha virt. eigenvalues --    0.59420   0.59736   0.59804   0.60193   0.60480
 Alpha virt. eigenvalues --    0.60619   0.60839   0.61322   0.61714   0.61748
 Alpha virt. eigenvalues --    0.62186   0.62347   0.62444   0.62636   0.62955
 Alpha virt. eigenvalues --    0.63233   0.63517   0.63833   0.64124   0.64318
 Alpha virt. eigenvalues --    0.64713   0.64870   0.64911   0.65436   0.65515
 Alpha virt. eigenvalues --    0.66063   0.66171   0.66504   0.66818   0.66985
 Alpha virt. eigenvalues --    0.67201   0.67485   0.67807   0.68070   0.68345
 Alpha virt. eigenvalues --    0.68555   0.68606   0.68974   0.69419   0.69679
 Alpha virt. eigenvalues --    0.69970   0.70237   0.70608   0.70861   0.71029
 Alpha virt. eigenvalues --    0.71378   0.71599   0.71820   0.71947   0.72257
 Alpha virt. eigenvalues --    0.72430   0.72654   0.73202   0.73444   0.73664
 Alpha virt. eigenvalues --    0.74297   0.74540   0.74680   0.74892   0.75226
 Alpha virt. eigenvalues --    0.75457   0.75763   0.76068   0.76314   0.76799
 Alpha virt. eigenvalues --    0.76886   0.77271   0.77648   0.77828   0.77989
 Alpha virt. eigenvalues --    0.78395   0.78616   0.78928   0.78987   0.79130
 Alpha virt. eigenvalues --    0.79712   0.79916   0.79968   0.80532   0.80966
 Alpha virt. eigenvalues --    0.81799   0.81870   0.82442   0.82632   0.82670
 Alpha virt. eigenvalues --    0.82892   0.83292   0.83475   0.83847   0.84037
 Alpha virt. eigenvalues --    0.84230   0.84541   0.84797   0.85242   0.85784
 Alpha virt. eigenvalues --    0.86072   0.86437   0.86924   0.87188   0.87481
 Alpha virt. eigenvalues --    0.87846   0.88115   0.88444   0.88742   0.89079
 Alpha virt. eigenvalues --    0.89463   0.90053   0.90297   0.90467   0.91234
 Alpha virt. eigenvalues --    0.91442   0.91882   0.92429   0.92568   0.92840
 Alpha virt. eigenvalues --    0.93458   0.93631   0.94205   0.94361   0.94519
 Alpha virt. eigenvalues --    0.94706   0.94871   0.95421   0.95767   0.96265
 Alpha virt. eigenvalues --    0.96640   0.96762   0.97338   0.97570   0.97828
 Alpha virt. eigenvalues --    0.98278   0.98469   0.98650   0.99049   0.99486
 Alpha virt. eigenvalues --    0.99650   1.00027   1.00457   1.00611   1.00968
 Alpha virt. eigenvalues --    1.01030   1.01775   1.02146   1.02209   1.02567
 Alpha virt. eigenvalues --    1.02818   1.02922   1.03436   1.03454   1.03680
 Alpha virt. eigenvalues --    1.04165   1.04523   1.04668   1.04946   1.05364
 Alpha virt. eigenvalues --    1.05574   1.06089   1.06176   1.06395   1.06685
 Alpha virt. eigenvalues --    1.07313   1.07520   1.07708   1.08281   1.08384
 Alpha virt. eigenvalues --    1.08883   1.09013   1.09495   1.09710   1.10269
 Alpha virt. eigenvalues --    1.10576   1.10805   1.10993   1.11230   1.11418
 Alpha virt. eigenvalues --    1.11708   1.12258   1.12784   1.13081   1.13419
 Alpha virt. eigenvalues --    1.13718   1.13913   1.14458   1.14777   1.15063
 Alpha virt. eigenvalues --    1.15429   1.15463   1.16100   1.16471   1.16923
 Alpha virt. eigenvalues --    1.17144   1.17733   1.18007   1.18309   1.18896
 Alpha virt. eigenvalues --    1.19448   1.19696   1.20006   1.20412   1.20792
 Alpha virt. eigenvalues --    1.21198   1.22128   1.22287   1.22488   1.23482
 Alpha virt. eigenvalues --    1.23703   1.24175   1.24275   1.24582   1.25220
 Alpha virt. eigenvalues --    1.25534   1.25739   1.25879   1.26631   1.26809
 Alpha virt. eigenvalues --    1.27235   1.27504   1.27700   1.28089   1.28798
 Alpha virt. eigenvalues --    1.29232   1.29469   1.29733   1.30318   1.30460
 Alpha virt. eigenvalues --    1.30921   1.31230   1.31817   1.32142   1.32356
 Alpha virt. eigenvalues --    1.32833   1.33512   1.34005   1.34313   1.34654
 Alpha virt. eigenvalues --    1.34921   1.35510   1.35622   1.36121   1.36646
 Alpha virt. eigenvalues --    1.37157   1.37425   1.37762   1.38095   1.38397
 Alpha virt. eigenvalues --    1.38987   1.39747   1.39835   1.40475   1.40818
 Alpha virt. eigenvalues --    1.41060   1.42012   1.42311   1.42523   1.43235
 Alpha virt. eigenvalues --    1.43506   1.43961   1.44202   1.44921   1.45256
 Alpha virt. eigenvalues --    1.45389   1.45749   1.46199   1.46746   1.46955
 Alpha virt. eigenvalues --    1.46989   1.47427   1.47951   1.48477   1.48606
 Alpha virt. eigenvalues --    1.48787   1.49265   1.49337   1.49647   1.49802
 Alpha virt. eigenvalues --    1.50213   1.50333   1.50602   1.51077   1.51491
 Alpha virt. eigenvalues --    1.51654   1.52240   1.52468   1.52721   1.53067
 Alpha virt. eigenvalues --    1.53148   1.53797   1.53805   1.54315   1.54781
 Alpha virt. eigenvalues --    1.54910   1.55187   1.55525   1.56003   1.56372
 Alpha virt. eigenvalues --    1.56413   1.56757   1.57103   1.57295   1.57552
 Alpha virt. eigenvalues --    1.57694   1.58690   1.58902   1.59043   1.59415
 Alpha virt. eigenvalues --    1.59466   1.60006   1.60058   1.60333   1.60696
 Alpha virt. eigenvalues --    1.60939   1.61110   1.61420   1.61629   1.61750
 Alpha virt. eigenvalues --    1.62271   1.62306   1.62571   1.62727   1.63173
 Alpha virt. eigenvalues --    1.63319   1.63505   1.63858   1.64162   1.64617
 Alpha virt. eigenvalues --    1.64718   1.65082   1.65177   1.65377   1.65964
 Alpha virt. eigenvalues --    1.66303   1.66414   1.66814   1.67050   1.67542
 Alpha virt. eigenvalues --    1.67968   1.68050   1.68750   1.68844   1.69661
 Alpha virt. eigenvalues --    1.69810   1.70277   1.70366   1.70998   1.71147
 Alpha virt. eigenvalues --    1.71417   1.71582   1.72100   1.72463   1.72589
 Alpha virt. eigenvalues --    1.72990   1.73432   1.73858   1.74703   1.74773
 Alpha virt. eigenvalues --    1.75258   1.75475   1.75820   1.75975   1.76352
 Alpha virt. eigenvalues --    1.76485   1.77045   1.78144   1.78372   1.78735
 Alpha virt. eigenvalues --    1.79022   1.79323   1.79864   1.80245   1.80652
 Alpha virt. eigenvalues --    1.81011   1.81471   1.81943   1.82072   1.82518
 Alpha virt. eigenvalues --    1.82908   1.83718   1.83953   1.84095   1.84446
 Alpha virt. eigenvalues --    1.84792   1.85010   1.85487   1.85783   1.85982
 Alpha virt. eigenvalues --    1.86809   1.87045   1.87385   1.88193   1.88397
 Alpha virt. eigenvalues --    1.88799   1.88840   1.89397   1.89945   1.90048
 Alpha virt. eigenvalues --    1.90738   1.91022   1.91114   1.91478   1.92037
 Alpha virt. eigenvalues --    1.92120   1.92581   1.93189   1.93776   1.94096
 Alpha virt. eigenvalues --    1.94499   1.94701   1.94959   1.95070   1.95634
 Alpha virt. eigenvalues --    1.95876   1.95988   1.96934   1.97011   1.97268
 Alpha virt. eigenvalues --    1.98044   1.98201   1.98480   1.98680   1.98944
 Alpha virt. eigenvalues --    1.99170   1.99447   2.00287   2.00776   2.00947
 Alpha virt. eigenvalues --    2.01238   2.01374   2.01896   2.02432   2.02662
 Alpha virt. eigenvalues --    2.03515   2.04206   2.04280   2.04680   2.05012
 Alpha virt. eigenvalues --    2.05073   2.05253   2.06099   2.06459   2.06829
 Alpha virt. eigenvalues --    2.07174   2.07285   2.07761   2.07954   2.08230
 Alpha virt. eigenvalues --    2.08713   2.08889   2.09485   2.10087   2.10130
 Alpha virt. eigenvalues --    2.10622   2.11343   2.11843   2.12392   2.12991
 Alpha virt. eigenvalues --    2.13831   2.13996   2.14255   2.14927   2.15430
 Alpha virt. eigenvalues --    2.15551   2.16210   2.16467   2.16815   2.16973
 Alpha virt. eigenvalues --    2.17411   2.17802   2.17934   2.18525   2.18971
 Alpha virt. eigenvalues --    2.19523   2.19678   2.20133   2.20457   2.20918
 Alpha virt. eigenvalues --    2.21346   2.21809   2.22134   2.22599   2.22988
 Alpha virt. eigenvalues --    2.23356   2.23845   2.24366   2.24561   2.25261
 Alpha virt. eigenvalues --    2.25948   2.26221   2.26405   2.27388   2.27666
 Alpha virt. eigenvalues --    2.28163   2.28462   2.28633   2.29185   2.29710
 Alpha virt. eigenvalues --    2.30191   2.30551   2.31150   2.31843   2.31961
 Alpha virt. eigenvalues --    2.32845   2.32926   2.33247   2.33736   2.33843
 Alpha virt. eigenvalues --    2.34464   2.34566   2.35311   2.35785   2.36016
 Alpha virt. eigenvalues --    2.36436   2.37145   2.37343   2.37566   2.37806
 Alpha virt. eigenvalues --    2.38263   2.38515   2.39077   2.39655   2.39722
 Alpha virt. eigenvalues --    2.40119   2.40635   2.40927   2.41891   2.42011
 Alpha virt. eigenvalues --    2.42565   2.42915   2.43397   2.43698   2.43935
 Alpha virt. eigenvalues --    2.44530   2.44759   2.45110   2.45481   2.45591
 Alpha virt. eigenvalues --    2.46141   2.46642   2.46987   2.47625   2.47732
 Alpha virt. eigenvalues --    2.48632   2.49018   2.49362   2.49961   2.50090
 Alpha virt. eigenvalues --    2.50944   2.51716   2.51745   2.52112   2.52809
 Alpha virt. eigenvalues --    2.53160   2.53308   2.53525   2.53616   2.54246
 Alpha virt. eigenvalues --    2.54655   2.54924   2.55727   2.56103   2.56476
 Alpha virt. eigenvalues --    2.56549   2.56870   2.57292   2.57707   2.57751
 Alpha virt. eigenvalues --    2.57851   2.58380   2.59118   2.59397   2.59522
 Alpha virt. eigenvalues --    2.60114   2.60638   2.60724   2.61053   2.61467
 Alpha virt. eigenvalues --    2.61703   2.62101   2.62171   2.62904   2.63023
 Alpha virt. eigenvalues --    2.63329   2.63718   2.64253   2.64520   2.64905
 Alpha virt. eigenvalues --    2.65088   2.65228   2.65589   2.66142   2.66668
 Alpha virt. eigenvalues --    2.66754   2.67013   2.67581   2.67966   2.68133
 Alpha virt. eigenvalues --    2.68430   2.68678   2.68761   2.69045   2.69407
 Alpha virt. eigenvalues --    2.69580   2.70027   2.70954   2.71258   2.71504
 Alpha virt. eigenvalues --    2.71870   2.72400   2.72495   2.72746   2.73409
 Alpha virt. eigenvalues --    2.73732   2.74139   2.74233   2.74984   2.75078
 Alpha virt. eigenvalues --    2.75282   2.75504   2.75803   2.76238   2.76965
 Alpha virt. eigenvalues --    2.77320   2.77471   2.78025   2.78113   2.78523
 Alpha virt. eigenvalues --    2.79318   2.79817   2.80164   2.80599   2.80809
 Alpha virt. eigenvalues --    2.81315   2.81845   2.82323   2.82542   2.82703
 Alpha virt. eigenvalues --    2.82873   2.83059   2.83381   2.83796   2.83863
 Alpha virt. eigenvalues --    2.84636   2.85207   2.85296   2.85976   2.86160
 Alpha virt. eigenvalues --    2.86532   2.86837   2.87160   2.87572   2.87754
 Alpha virt. eigenvalues --    2.88256   2.88808   2.88970   2.89157   2.89860
 Alpha virt. eigenvalues --    2.89979   2.90388   2.90687   2.91047   2.91312
 Alpha virt. eigenvalues --    2.91944   2.91975   2.92179   2.92305   2.93055
 Alpha virt. eigenvalues --    2.93251   2.93663   2.94138   2.94274   2.94383
 Alpha virt. eigenvalues --    2.95018   2.95230   2.95398   2.95612   2.96161
 Alpha virt. eigenvalues --    2.96317   2.96498   2.96985   2.97033   2.97304
 Alpha virt. eigenvalues --    2.98010   2.98327   2.99074   2.99182   2.99468
 Alpha virt. eigenvalues --    2.99705   2.99898   3.00290   3.00673   3.00748
 Alpha virt. eigenvalues --    3.01110   3.01342   3.01713   3.02134   3.02532
 Alpha virt. eigenvalues --    3.03354   3.03660   3.03874   3.04476   3.04825
 Alpha virt. eigenvalues --    3.05237   3.05266   3.05414   3.05476   3.05926
 Alpha virt. eigenvalues --    3.06309   3.06602   3.07265   3.07380   3.07641
 Alpha virt. eigenvalues --    3.08049   3.08389   3.08583   3.09210   3.09254
 Alpha virt. eigenvalues --    3.09511   3.10013   3.10141   3.10512   3.10712
 Alpha virt. eigenvalues --    3.10986   3.11316   3.11727   3.12196   3.12373
 Alpha virt. eigenvalues --    3.12661   3.12816   3.13315   3.13651   3.13805
 Alpha virt. eigenvalues --    3.14302   3.14695   3.14931   3.15137   3.15346
 Alpha virt. eigenvalues --    3.15539   3.15852   3.16393   3.16712   3.17134
 Alpha virt. eigenvalues --    3.17242   3.17578   3.17923   3.18315   3.18449
 Alpha virt. eigenvalues --    3.18649   3.18990   3.19416   3.19694   3.20017
 Alpha virt. eigenvalues --    3.20288   3.20636   3.20720   3.21500   3.21542
 Alpha virt. eigenvalues --    3.21794   3.22082   3.22402   3.22984   3.23192
 Alpha virt. eigenvalues --    3.23515   3.23768   3.24182   3.24565   3.24811
 Alpha virt. eigenvalues --    3.25094   3.25251   3.25870   3.26027   3.26086
 Alpha virt. eigenvalues --    3.26511   3.26777   3.27348   3.27610   3.27690
 Alpha virt. eigenvalues --    3.27771   3.28330   3.28507   3.28991   3.29366
 Alpha virt. eigenvalues --    3.29468   3.29662   3.29856   3.30110   3.30495
 Alpha virt. eigenvalues --    3.30837   3.31189   3.31553   3.31677   3.32432
 Alpha virt. eigenvalues --    3.32461   3.32993   3.33219   3.33250   3.33454
 Alpha virt. eigenvalues --    3.33594   3.33730   3.34109   3.34542   3.34893
 Alpha virt. eigenvalues --    3.35170   3.35316   3.35396   3.35809   3.36058
 Alpha virt. eigenvalues --    3.36163   3.36312   3.36871   3.36982   3.37324
 Alpha virt. eigenvalues --    3.37436   3.37770   3.38151   3.38233   3.38441
 Alpha virt. eigenvalues --    3.38599   3.38836   3.38950   3.39040   3.39430
 Alpha virt. eigenvalues --    3.39915   3.40083   3.40335   3.40497   3.40808
 Alpha virt. eigenvalues --    3.41336   3.41572   3.41997   3.42214   3.42634
 Alpha virt. eigenvalues --    3.42932   3.43022   3.43367   3.44032   3.44197
 Alpha virt. eigenvalues --    3.44604   3.45249   3.45470   3.46168   3.46353
 Alpha virt. eigenvalues --    3.46776   3.47158   3.47365   3.47519   3.47777
 Alpha virt. eigenvalues --    3.48248   3.48788   3.49003   3.49335   3.49761
 Alpha virt. eigenvalues --    3.50074   3.50371   3.50839   3.51413   3.51769
 Alpha virt. eigenvalues --    3.52242   3.52341   3.52795   3.52928   3.53325
 Alpha virt. eigenvalues --    3.53471   3.53724   3.53953   3.54404   3.55209
 Alpha virt. eigenvalues --    3.55503   3.55931   3.56581   3.56821   3.57182
 Alpha virt. eigenvalues --    3.57388   3.58118   3.58188   3.58676   3.59146
 Alpha virt. eigenvalues --    3.59254   3.59848   3.60327   3.60451   3.60584
 Alpha virt. eigenvalues --    3.61043   3.61767   3.62082   3.62675   3.62825
 Alpha virt. eigenvalues --    3.62972   3.63517   3.64061   3.64287   3.64707
 Alpha virt. eigenvalues --    3.65002   3.65728   3.65845   3.66097   3.66549
 Alpha virt. eigenvalues --    3.67112   3.67212   3.67745   3.68338   3.68542
 Alpha virt. eigenvalues --    3.68909   3.69474   3.69674   3.69859   3.70160
 Alpha virt. eigenvalues --    3.70658   3.70937   3.71775   3.71878   3.72270
 Alpha virt. eigenvalues --    3.72644   3.73147   3.73510   3.73613   3.74239
 Alpha virt. eigenvalues --    3.74780   3.74810   3.75048   3.75504   3.76040
 Alpha virt. eigenvalues --    3.76138   3.76382   3.77253   3.77691   3.78358
 Alpha virt. eigenvalues --    3.78555   3.78972   3.79627   3.79895   3.80097
 Alpha virt. eigenvalues --    3.80868   3.81608   3.81780   3.82326   3.82560
 Alpha virt. eigenvalues --    3.83220   3.83311   3.83875   3.84957   3.85082
 Alpha virt. eigenvalues --    3.85311   3.86075   3.86186   3.86874   3.87356
 Alpha virt. eigenvalues --    3.88084   3.88617   3.88966   3.89122   3.89920
 Alpha virt. eigenvalues --    3.91262   3.91365   3.91549   3.92415   3.93527
 Alpha virt. eigenvalues --    3.93890   3.94572   3.94931   3.95548   3.95959
 Alpha virt. eigenvalues --    3.96183   3.97164   3.97367   3.97977   3.98036
 Alpha virt. eigenvalues --    3.98285   3.98887   3.99279   4.00549   4.00781
 Alpha virt. eigenvalues --    4.01082   4.01951   4.02085   4.02576   4.03139
 Alpha virt. eigenvalues --    4.03763   4.04300   4.05031   4.05299   4.05579
 Alpha virt. eigenvalues --    4.06666   4.07222   4.07792   4.08305   4.08932
 Alpha virt. eigenvalues --    4.09069   4.09359   4.09889   4.10351   4.10727
 Alpha virt. eigenvalues --    4.11306   4.12082   4.12803   4.13651   4.13767
 Alpha virt. eigenvalues --    4.13909   4.14299   4.14733   4.15654   4.16476
 Alpha virt. eigenvalues --    4.16853   4.16910   4.17557   4.17760   4.18434
 Alpha virt. eigenvalues --    4.19647   4.19917   4.20528   4.20824   4.21228
 Alpha virt. eigenvalues --    4.21512   4.21886   4.23369   4.23986   4.24070
 Alpha virt. eigenvalues --    4.24560   4.24883   4.25581   4.25653   4.26024
 Alpha virt. eigenvalues --    4.26593   4.26894   4.27634   4.28238   4.28432
 Alpha virt. eigenvalues --    4.29019   4.29261   4.29594   4.29844   4.29974
 Alpha virt. eigenvalues --    4.30724   4.31606   4.32183   4.33084   4.33237
 Alpha virt. eigenvalues --    4.34183   4.34673   4.35183   4.36210   4.38297
 Alpha virt. eigenvalues --    4.38694   4.39569   4.39796   4.40176   4.41240
 Alpha virt. eigenvalues --    4.42030   4.42526   4.43017   4.43190   4.43975
 Alpha virt. eigenvalues --    4.44495   4.45040   4.45385   4.45947   4.46545
 Alpha virt. eigenvalues --    4.46677   4.46796   4.47428   4.48982   4.49270
 Alpha virt. eigenvalues --    4.50102   4.50832   4.51338   4.52386   4.53288
 Alpha virt. eigenvalues --    4.54044   4.54431   4.54913   4.55579   4.56261
 Alpha virt. eigenvalues --    4.56869   4.57446   4.58739   4.59005   4.59355
 Alpha virt. eigenvalues --    4.60236   4.61924   4.63122   4.63277   4.64312
 Alpha virt. eigenvalues --    4.65134   4.65894   4.66902   4.67335   4.67732
 Alpha virt. eigenvalues --    4.68035   4.69143   4.69191   4.69867   4.71093
 Alpha virt. eigenvalues --    4.71868   4.72367   4.73111   4.73615   4.74606
 Alpha virt. eigenvalues --    4.75113   4.76055   4.76937   4.77176   4.78087
 Alpha virt. eigenvalues --    4.78383   4.79092   4.79384   4.80182   4.80713
 Alpha virt. eigenvalues --    4.81534   4.81766   4.83349   4.83581   4.84433
 Alpha virt. eigenvalues --    4.85096   4.85462   4.86028   4.88419   4.88678
 Alpha virt. eigenvalues --    4.89437   4.90809   4.91252   4.92077   4.92623
 Alpha virt. eigenvalues --    4.93883   4.94817   4.95626   4.96281   4.96674
 Alpha virt. eigenvalues --    4.97476   4.98286   4.99622   4.99887   5.00133
 Alpha virt. eigenvalues --    5.01384   5.01894   5.03184   5.04562   5.06070
 Alpha virt. eigenvalues --    5.06553   5.06917   5.07501   5.08260   5.09586
 Alpha virt. eigenvalues --    5.10313   5.10775   5.11458   5.11969   5.12665
 Alpha virt. eigenvalues --    5.13239   5.13892   5.16088   5.16611   5.16826
 Alpha virt. eigenvalues --    5.17880   5.18918   5.19537   5.19791   5.20503
 Alpha virt. eigenvalues --    5.21008   5.21276   5.21734   5.21834   5.22289
 Alpha virt. eigenvalues --    5.22640   5.23560   5.24597   5.24945   5.25591
 Alpha virt. eigenvalues --    5.25782   5.25913   5.27307   5.28579   5.28814
 Alpha virt. eigenvalues --    5.30098   5.32267   5.33093   5.34159   5.35612
 Alpha virt. eigenvalues --    5.38549   5.39067   5.39418   5.41051   5.41604
 Alpha virt. eigenvalues --    5.42460   5.43070   5.43405   5.44531   5.44623
 Alpha virt. eigenvalues --    5.46219   5.47600   5.47741   5.48094   5.49336
 Alpha virt. eigenvalues --    5.50419   5.51112   5.52754   5.53393   5.54117
 Alpha virt. eigenvalues --    5.54885   5.55631   5.57394   5.58047   5.58824
 Alpha virt. eigenvalues --    5.59687   5.60014   5.61130   5.63109   5.63833
 Alpha virt. eigenvalues --    5.64450   5.64924   5.65767   5.67400   5.68964
 Alpha virt. eigenvalues --    5.69531   5.69930   5.70120   5.70816   5.73242
 Alpha virt. eigenvalues --    5.73968   5.75978   5.77733   5.80520   5.81467
 Alpha virt. eigenvalues --    5.82491   5.84990   5.85728   5.86604   5.89401
 Alpha virt. eigenvalues --    5.90657   5.90752   5.93364   5.97492   5.99067
 Alpha virt. eigenvalues --    5.99421   6.02628   6.05107   6.05253   6.06420
 Alpha virt. eigenvalues --    6.12015   6.13982   6.15157   6.15846   6.16691
 Alpha virt. eigenvalues --    6.17860   6.19431   6.21690   6.24972   6.26018
 Alpha virt. eigenvalues --    6.26946   6.27888   6.33801   6.34695   6.40608
 Alpha virt. eigenvalues --    6.40683   6.42652   6.44372   6.44889   6.47012
 Alpha virt. eigenvalues --    6.47913   6.48346   6.49208   6.51987   6.52416
 Alpha virt. eigenvalues --    6.52638   6.53894   6.59590   6.67497   6.67910
 Alpha virt. eigenvalues --    6.75891   6.79079   6.81919   6.85469   6.86406
 Alpha virt. eigenvalues --    6.96962   6.98128   7.04196   7.07714   7.13078
 Alpha virt. eigenvalues --    7.15410   7.17170   7.17650   7.19508   7.21172
 Alpha virt. eigenvalues --    7.28672   7.28913  22.37653  22.38260  22.53187
 Alpha virt. eigenvalues --   22.53293  22.54180  22.55038  22.63637  22.68292
 Alpha virt. eigenvalues --   22.70560  22.73522  22.76004  22.81391  22.84815
 Alpha virt. eigenvalues --   22.98050  22.98709  23.02069  23.03503  23.08553
 Alpha virt. eigenvalues --   23.09628  23.12145  23.13492  23.19663  23.21211
 Alpha virt. eigenvalues --   23.39117  23.40450  23.45934  23.46823  23.48988
 Alpha virt. eigenvalues --   23.56415  23.59350  23.61336  23.68917  23.73841
 Alpha virt. eigenvalues --   23.83313  23.96313  23.98943  24.09015  32.48157
 Alpha virt. eigenvalues --   32.74031  32.98657  33.02957  33.11911  33.17403
 Alpha virt. eigenvalues --   43.94839  43.97521  43.99852  44.00994  44.20508
  Beta  occ. eigenvalues -- -256.42335 -30.16646 -26.00172 -25.99807 -25.98939
  Beta  occ. eigenvalues --  -19.25039 -19.24897 -19.21911 -19.17941 -19.17586
  Beta  occ. eigenvalues --  -14.45348 -14.39813 -14.38248 -14.38204 -14.37407
  Beta  occ. eigenvalues --  -14.36979 -10.34750 -10.34686 -10.28494 -10.25241
  Beta  occ. eigenvalues --  -10.24744 -10.24381 -10.24256 -10.24225 -10.24107
  Beta  occ. eigenvalues --  -10.24072 -10.24036 -10.23929 -10.23479 -10.23064
  Beta  occ. eigenvalues --  -10.22863 -10.22312 -10.22300 -10.22103 -10.22098
  Beta  occ. eigenvalues --  -10.22069 -10.22055 -10.22033 -10.21982 -10.21880
  Beta  occ. eigenvalues --  -10.21775 -10.21730 -10.21644 -10.21597 -10.21419
  Beta  occ. eigenvalues --  -10.21132 -10.21004 -10.20897 -10.20644 -10.20420
  Beta  occ. eigenvalues --  -10.20319 -10.20136 -10.19641  -3.47297  -2.23567
  Beta  occ. eigenvalues --   -2.22909  -2.19572  -1.17433  -1.17108  -1.10702
  Beta  occ. eigenvalues --   -1.07117  -1.03733  -1.03105  -1.01135  -1.00553
  Beta  occ. eigenvalues --   -0.99859  -0.99348  -0.94609  -0.84285  -0.83356
  Beta  occ. eigenvalues --   -0.83315  -0.82808  -0.82459  -0.81650  -0.81172
  Beta  occ. eigenvalues --   -0.79664  -0.79299  -0.78598  -0.76889  -0.75277
  Beta  occ. eigenvalues --   -0.75002  -0.73727  -0.72403  -0.71764  -0.71225
  Beta  occ. eigenvalues --   -0.70059  -0.69346  -0.68891  -0.67347  -0.66849
  Beta  occ. eigenvalues --   -0.66642  -0.65603  -0.65426  -0.64476  -0.62559
  Beta  occ. eigenvalues --   -0.61964  -0.60621  -0.59793  -0.58959  -0.58690
  Beta  occ. eigenvalues --   -0.57052  -0.55839  -0.54734  -0.53756  -0.52961
  Beta  occ. eigenvalues --   -0.52799  -0.52587  -0.52420  -0.52088  -0.51201
  Beta  occ. eigenvalues --   -0.50495  -0.49866  -0.49472  -0.49236  -0.48882
  Beta  occ. eigenvalues --   -0.48790  -0.48701  -0.48479  -0.46881  -0.46622
  Beta  occ. eigenvalues --   -0.46146  -0.45865  -0.45618  -0.45487  -0.45022
  Beta  occ. eigenvalues --   -0.44499  -0.44417  -0.44292  -0.43818  -0.43709
  Beta  occ. eigenvalues --   -0.43306  -0.43235  -0.42468  -0.42425  -0.41845
  Beta  occ. eigenvalues --   -0.41673  -0.41422  -0.41127  -0.40931  -0.40659
  Beta  occ. eigenvalues --   -0.40409  -0.40222  -0.39648  -0.39402  -0.39154
  Beta  occ. eigenvalues --   -0.38913  -0.38509  -0.38298  -0.38088  -0.37716
  Beta  occ. eigenvalues --   -0.37456  -0.37091  -0.36940  -0.36644  -0.36568
  Beta  occ. eigenvalues --   -0.36403  -0.36221  -0.35758  -0.35609  -0.34752
  Beta  occ. eigenvalues --   -0.34445  -0.34183  -0.33285  -0.32968  -0.32825
  Beta  occ. eigenvalues --   -0.32666  -0.32099  -0.31599  -0.30474  -0.29747
  Beta  occ. eigenvalues --   -0.28317  -0.28015  -0.27902  -0.27695  -0.27258
  Beta  occ. eigenvalues --   -0.25675  -0.24038  -0.23788  -0.21931  -0.20648
  Beta  occ. eigenvalues --   -0.19021  -0.18097
  Beta virt. eigenvalues --   -0.09691  -0.08351  -0.06408  -0.05911  -0.03822
  Beta virt. eigenvalues --   -0.02128  -0.01738  -0.01300  -0.00500   0.00277
  Beta virt. eigenvalues --    0.01089   0.02111   0.03076   0.03809   0.04881
  Beta virt. eigenvalues --    0.05036   0.05595   0.05976   0.06248   0.06270
  Beta virt. eigenvalues --    0.06484   0.07042   0.07429   0.07973   0.08515
  Beta virt. eigenvalues --    0.08924   0.09081   0.09266   0.09442   0.09642
  Beta virt. eigenvalues --    0.09946   0.10118   0.10330   0.11064   0.11156
  Beta virt. eigenvalues --    0.11296   0.11715   0.11943   0.12141   0.12520
  Beta virt. eigenvalues --    0.12796   0.13183   0.13401   0.13681   0.13730
  Beta virt. eigenvalues --    0.13863   0.14353   0.14457   0.14723   0.14963
  Beta virt. eigenvalues --    0.15120   0.15516   0.15665   0.15799   0.15951
  Beta virt. eigenvalues --    0.16307   0.16540   0.16650   0.16954   0.17146
  Beta virt. eigenvalues --    0.17505   0.17535   0.17740   0.17961   0.18365
  Beta virt. eigenvalues --    0.18524   0.19047   0.19154   0.19353   0.19439
  Beta virt. eigenvalues --    0.19541   0.19823   0.20021   0.20453   0.20622
  Beta virt. eigenvalues --    0.20776   0.21171   0.21546   0.21652   0.22064
  Beta virt. eigenvalues --    0.22252   0.22340   0.22525   0.22774   0.23251
  Beta virt. eigenvalues --    0.23293   0.23438   0.23522   0.23619   0.23723
  Beta virt. eigenvalues --    0.24047   0.24349   0.24488   0.24716   0.24860
  Beta virt. eigenvalues --    0.25324   0.25467   0.25777   0.26176   0.26462
  Beta virt. eigenvalues --    0.26858   0.27001   0.27360   0.27485   0.27658
  Beta virt. eigenvalues --    0.27795   0.27952   0.28199   0.28383   0.28533
  Beta virt. eigenvalues --    0.28714   0.29088   0.29335   0.29614   0.29813
  Beta virt. eigenvalues --    0.29991   0.30170   0.30386   0.30864   0.30897
  Beta virt. eigenvalues --    0.31302   0.31473   0.31535   0.31745   0.32082
  Beta virt. eigenvalues --    0.32476   0.32661   0.32809   0.33311   0.33710
  Beta virt. eigenvalues --    0.33721   0.33795   0.34365   0.34485   0.34845
  Beta virt. eigenvalues --    0.35196   0.35372   0.35652   0.35969   0.36089
  Beta virt. eigenvalues --    0.36246   0.36936   0.37090   0.37209   0.37552
  Beta virt. eigenvalues --    0.37711   0.37942   0.38304   0.38431   0.38869
  Beta virt. eigenvalues --    0.38959   0.39121   0.39320   0.39556   0.39567
  Beta virt. eigenvalues --    0.39846   0.40033   0.40193   0.40300   0.40599
  Beta virt. eigenvalues --    0.40811   0.40967   0.41148   0.41384   0.41564
  Beta virt. eigenvalues --    0.41953   0.42194   0.42325   0.42606   0.42630
  Beta virt. eigenvalues --    0.43081   0.43352   0.43462   0.43578   0.43656
  Beta virt. eigenvalues --    0.43969   0.44017   0.44391   0.44690   0.44797
  Beta virt. eigenvalues --    0.45133   0.45467   0.45624   0.45719   0.45768
  Beta virt. eigenvalues --    0.46022   0.46105   0.46161   0.46423   0.46787
  Beta virt. eigenvalues --    0.47043   0.47138   0.47481   0.47613   0.47752
  Beta virt. eigenvalues --    0.48065   0.48231   0.48380   0.48727   0.49011
  Beta virt. eigenvalues --    0.49240   0.49330   0.49539   0.49712   0.49822
  Beta virt. eigenvalues --    0.50091   0.50198   0.50458   0.50625   0.50763
  Beta virt. eigenvalues --    0.51060   0.51151   0.51365   0.51502   0.51771
  Beta virt. eigenvalues --    0.51947   0.52185   0.52283   0.52542   0.52597
  Beta virt. eigenvalues --    0.52942   0.53047   0.53228   0.53429   0.53495
  Beta virt. eigenvalues --    0.53765   0.53831   0.54208   0.54426   0.54482
  Beta virt. eigenvalues --    0.54799   0.55240   0.55401   0.55550   0.55827
  Beta virt. eigenvalues --    0.55973   0.56292   0.56568   0.56759   0.56955
  Beta virt. eigenvalues --    0.56988   0.57244   0.57689   0.57753   0.58049
  Beta virt. eigenvalues --    0.58636   0.58917   0.59122   0.59388   0.59514
  Beta virt. eigenvalues --    0.59873   0.59991   0.60313   0.60570   0.60736
  Beta virt. eigenvalues --    0.61113   0.61418   0.61785   0.61910   0.62249
  Beta virt. eigenvalues --    0.62404   0.62538   0.62777   0.63157   0.63331
  Beta virt. eigenvalues --    0.63645   0.63928   0.64256   0.64447   0.64818
  Beta virt. eigenvalues --    0.64996   0.65049   0.65565   0.65620   0.66189
  Beta virt. eigenvalues --    0.66348   0.66690   0.66925   0.67186   0.67341
  Beta virt. eigenvalues --    0.67651   0.68018   0.68253   0.68436   0.68688
  Beta virt. eigenvalues --    0.68751   0.69130   0.69559   0.69838   0.70134
  Beta virt. eigenvalues --    0.70341   0.70721   0.71048   0.71201   0.71559
  Beta virt. eigenvalues --    0.71697   0.71979   0.72064   0.72403   0.72590
  Beta virt. eigenvalues --    0.72787   0.73339   0.73557   0.73793   0.74393
  Beta virt. eigenvalues --    0.74685   0.74770   0.74996   0.75329   0.75595
  Beta virt. eigenvalues --    0.75875   0.76184   0.76446   0.76918   0.77003
  Beta virt. eigenvalues --    0.77487   0.77811   0.77924   0.78088   0.78575
  Beta virt. eigenvalues --    0.78741   0.79093   0.79109   0.79253   0.79833
  Beta virt. eigenvalues --    0.80048   0.80098   0.80651   0.81094   0.81880
  Beta virt. eigenvalues --    0.82013   0.82544   0.82740   0.82787   0.83078
  Beta virt. eigenvalues --    0.83462   0.83612   0.84063   0.84172   0.84378
  Beta virt. eigenvalues --    0.84750   0.84932   0.85411   0.85938   0.86202
  Beta virt. eigenvalues --    0.86585   0.87092   0.87411   0.87619   0.87997
  Beta virt. eigenvalues --    0.88258   0.88621   0.88875   0.89290   0.89792
  Beta virt. eigenvalues --    0.90209   0.90517   0.90591   0.91358   0.91604
  Beta virt. eigenvalues --    0.92079   0.92579   0.92744   0.93016   0.93631
  Beta virt. eigenvalues --    0.93796   0.94380   0.94479   0.94704   0.94857
  Beta virt. eigenvalues --    0.95038   0.95577   0.95895   0.96394   0.96804
  Beta virt. eigenvalues --    0.96965   0.97558   0.97704   0.98162   0.98392
  Beta virt. eigenvalues --    0.98651   0.98868   0.99189   0.99690   0.99776
  Beta virt. eigenvalues --    1.00310   1.00647   1.00850   1.01204   1.01333
  Beta virt. eigenvalues --    1.01914   1.02355   1.02373   1.02900   1.03092
  Beta virt. eigenvalues --    1.03311   1.03565   1.03683   1.03841   1.04510
  Beta virt. eigenvalues --    1.04749   1.04859   1.05138   1.05666   1.05829
  Beta virt. eigenvalues --    1.06244   1.06302   1.06596   1.07065   1.07496
  Beta virt. eigenvalues --    1.07663   1.08080   1.08476   1.08779   1.09167
  Beta virt. eigenvalues --    1.09181   1.09672   1.10103   1.10427   1.10774
  Beta virt. eigenvalues --    1.11047   1.11383   1.11481   1.11650   1.12071
  Beta virt. eigenvalues --    1.12597   1.12958   1.13397   1.13701   1.13958
  Beta virt. eigenvalues --    1.14168   1.14672   1.15045   1.15270   1.15584
  Beta virt. eigenvalues --    1.15673   1.16279   1.16756   1.17112   1.17398
  Beta virt. eigenvalues --    1.17953   1.18226   1.18491   1.19082   1.19580
  Beta virt. eigenvalues --    1.19871   1.20133   1.20655   1.20978   1.21331
  Beta virt. eigenvalues --    1.22405   1.22416   1.22806   1.23627   1.23793
  Beta virt. eigenvalues --    1.24280   1.24561   1.24779   1.25498   1.25742
  Beta virt. eigenvalues --    1.25819   1.26178   1.26918   1.27077   1.27536
  Beta virt. eigenvalues --    1.27849   1.28081   1.28261   1.28869   1.29346
  Beta virt. eigenvalues --    1.29641   1.29978   1.30499   1.30575   1.31286
  Beta virt. eigenvalues --    1.31417   1.32000   1.32244   1.32459   1.32988
  Beta virt. eigenvalues --    1.33642   1.34314   1.34584   1.34843   1.35091
  Beta virt. eigenvalues --    1.35653   1.35758   1.36265   1.36873   1.37304
  Beta virt. eigenvalues --    1.37636   1.37918   1.38306   1.38532   1.39217
  Beta virt. eigenvalues --    1.39867   1.40021   1.40626   1.40966   1.41245
  Beta virt. eigenvalues --    1.42128   1.42473   1.42683   1.43527   1.43722
  Beta virt. eigenvalues --    1.44211   1.44439   1.45100   1.45481   1.45664
  Beta virt. eigenvalues --    1.45871   1.46296   1.46816   1.47093   1.47206
  Beta virt. eigenvalues --    1.47627   1.48221   1.48708   1.48828   1.48936
  Beta virt. eigenvalues --    1.49385   1.49636   1.49668   1.49945   1.50356
  Beta virt. eigenvalues --    1.50531   1.50794   1.51351   1.51719   1.52023
  Beta virt. eigenvalues --    1.52373   1.52632   1.52885   1.53294   1.53356
  Beta virt. eigenvalues --    1.53890   1.54071   1.54496   1.54939   1.55061
  Beta virt. eigenvalues --    1.55379   1.55718   1.56216   1.56483   1.56634
  Beta virt. eigenvalues --    1.56915   1.57218   1.57430   1.57685   1.57884
  Beta virt. eigenvalues --    1.58791   1.58997   1.59163   1.59540   1.59709
  Beta virt. eigenvalues --    1.60164   1.60182   1.60518   1.60836   1.61094
  Beta virt. eigenvalues --    1.61285   1.61515   1.61817   1.61901   1.62392
  Beta virt. eigenvalues --    1.62571   1.62843   1.62930   1.63305   1.63569
  Beta virt. eigenvalues --    1.63705   1.64140   1.64306   1.64767   1.64901
  Beta virt. eigenvalues --    1.65178   1.65302   1.65577   1.66112   1.66405
  Beta virt. eigenvalues --    1.66539   1.66901   1.67228   1.67666   1.68070
  Beta virt. eigenvalues --    1.68212   1.68870   1.68935   1.69787   1.69908
  Beta virt. eigenvalues --    1.70358   1.70531   1.71089   1.71268   1.71577
  Beta virt. eigenvalues --    1.71659   1.72158   1.72539   1.72681   1.73041
  Beta virt. eigenvalues --    1.73517   1.73969   1.74807   1.74874   1.75396
  Beta virt. eigenvalues --    1.75628   1.75886   1.76055   1.76486   1.76678
  Beta virt. eigenvalues --    1.77160   1.78257   1.78495   1.78818   1.79140
  Beta virt. eigenvalues --    1.79413   1.79930   1.80370   1.80738   1.81074
  Beta virt. eigenvalues --    1.81608   1.82036   1.82239   1.82787   1.83227
  Beta virt. eigenvalues --    1.83905   1.84170   1.84467   1.84628   1.85184
  Beta virt. eigenvalues --    1.85280   1.85644   1.86056   1.86299   1.86923
  Beta virt. eigenvalues --    1.87216   1.87612   1.88277   1.88581   1.88892
  Beta virt. eigenvalues --    1.88975   1.89532   1.90008   1.90164   1.90867
  Beta virt. eigenvalues --    1.91194   1.91290   1.91660   1.92219   1.92328
  Beta virt. eigenvalues --    1.92880   1.93357   1.94182   1.94333   1.94719
  Beta virt. eigenvalues --    1.94846   1.95149   1.95223   1.95745   1.96066
  Beta virt. eigenvalues --    1.96226   1.97141   1.97165   1.97384   1.98170
  Beta virt. eigenvalues --    1.98409   1.98639   1.98721   1.99079   1.99386
  Beta virt. eigenvalues --    1.99648   2.00393   2.00897   2.01107   2.01310
  Beta virt. eigenvalues --    2.01614   2.02133   2.02513   2.02863   2.03610
  Beta virt. eigenvalues --    2.04307   2.04424   2.04860   2.05148   2.05263
  Beta virt. eigenvalues --    2.05386   2.06252   2.06564   2.07010   2.07394
  Beta virt. eigenvalues --    2.07483   2.07963   2.08087   2.08435   2.08813
  Beta virt. eigenvalues --    2.08981   2.09649   2.10236   2.10302   2.10893
  Beta virt. eigenvalues --    2.11582   2.11997   2.12596   2.13176   2.13954
  Beta virt. eigenvalues --    2.14137   2.14471   2.15005   2.15543   2.15805
  Beta virt. eigenvalues --    2.16315   2.16621   2.16932   2.17171   2.17477
  Beta virt. eigenvalues --    2.17930   2.18091   2.18721   2.19107   2.19653
  Beta virt. eigenvalues --    2.19798   2.20239   2.20662   2.21050   2.21497
  Beta virt. eigenvalues --    2.21973   2.22340   2.22785   2.23082   2.23570
[...]
              Bcc     0.0101     1.350     0.482     0.450  0.1606  0.8398 -0.5187
 
              Baa    -0.0514    -6.902    -2.463    -2.302  0.8835 -0.4503 -0.1288
    25 C(13)  Bbb    -0.0166    -2.231    -0.796    -0.744  0.4215  0.8844 -0.2007
              Bcc     0.0681     9.133     3.259     3.046  0.2042  0.1230  0.9712
 
              Baa    -0.0036    -0.479    -0.171    -0.160 -0.3116  0.7520  0.5809
    26 C(13)  Bbb    -0.0017    -0.227    -0.081    -0.076  0.6043 -0.3149  0.7319
              Bcc     0.0053     0.706     0.252     0.235  0.7333  0.5791 -0.3563
 
              Baa    -0.0205    -2.748    -0.980    -0.916  0.0255  0.1599  0.9868
    27 C(13)  Bbb     0.0054     0.719     0.257     0.240  0.9225 -0.3842  0.0385
              Bcc     0.0151     2.028     0.724     0.677  0.3853  0.9093 -0.1573
 
              Baa    -0.0252    -3.382    -1.207    -1.128  0.8558 -0.1770  0.4861
    28 C(13)  Bbb    -0.0204    -2.744    -0.979    -0.915  0.3579  0.8811 -0.3093
              Bcc     0.0457     6.126     2.186     2.043 -0.3735  0.4386  0.8174
 
              Baa    -0.0485    -6.503    -2.321    -2.169  0.8894  0.4141 -0.1934
    29 C(13)  Bbb    -0.0139    -1.872    -0.668    -0.624 -0.3819  0.9059  0.1831
              Bcc     0.0624     8.375     2.989     2.794  0.2510 -0.0890  0.9639
 
              Baa    -0.0223    -2.987    -1.066    -0.996  0.1247 -0.0014  0.9922
    30 C(13)  Bbb     0.0038     0.514     0.183     0.171  0.8988  0.4237 -0.1124
              Bcc     0.0184     2.473     0.883     0.825 -0.4202  0.9058  0.0541
 
              Baa    -0.0515    -6.909    -2.465    -2.305  0.4582  0.8874 -0.0508
    31 C(13)  Bbb    -0.0373    -5.005    -1.786    -1.669  0.8472 -0.4532 -0.2772
              Bcc     0.0888    11.914     4.251     3.974  0.2690 -0.0840  0.9595
 
              Baa    -0.0391    -5.251    -1.874    -1.752  0.0858  0.0144  0.9962
    32 C(13)  Bbb     0.0040     0.537     0.192     0.179  0.3596  0.9320 -0.0445
              Bcc     0.0351     4.714     1.682     1.572  0.9291 -0.3621 -0.0748
 
              Baa    -0.0034    -0.453    -0.162    -0.151  0.0247 -0.0458  0.9986
    33 C(13)  Bbb    -0.0024    -0.318    -0.113    -0.106  0.9074  0.4202 -0.0032
              Bcc     0.0057     0.771     0.275     0.257 -0.4195  0.9063  0.0520
 
              Baa    -0.0037    -0.490    -0.175    -0.163 -0.2705 -0.6327  0.7257
    34 C(13)  Bbb    -0.0023    -0.313    -0.112    -0.104  0.4219  0.5996  0.6800
              Bcc     0.0060     0.803     0.286     0.268  0.8654 -0.4901 -0.1048
 
              Baa    -0.0045    -0.609    -0.217    -0.203  0.4125  0.6964 -0.5873
    35 C(13)  Bbb    -0.0020    -0.263    -0.094    -0.088 -0.2236  0.7024  0.6758
              Bcc     0.0065     0.872     0.311     0.291  0.8831 -0.1475  0.4454
 
              Baa    -0.0017    -0.223    -0.079    -0.074  0.1393  0.3739  0.9169
    36 C(13)  Bbb    -0.0014    -0.187    -0.067    -0.062  0.2360  0.8867 -0.3975
              Bcc     0.0031     0.410     0.146     0.137  0.9617 -0.2718 -0.0352
 
              Baa    -0.0018     0.129     0.046     0.043  0.0345  0.6930  0.7201
    37 O(17)  Bbb    -0.0015     0.110     0.039     0.037  0.0260  0.7196 -0.6939
              Bcc     0.0033    -0.240    -0.085    -0.080  0.9991 -0.0426 -0.0068
 
              Baa    -0.0011     0.083     0.030     0.028  0.0942 -0.1368  0.9861
    38 O(17)  Bbb    -0.0010     0.072     0.026     0.024  0.3742  0.9228  0.0923
              Bcc     0.0021    -0.155    -0.055    -0.052  0.9226 -0.3603 -0.1381
 
              Baa    -0.0638    -2.461    -0.878    -0.821  0.8461  0.5095 -0.1565
    39 N(14)  Bbb    -0.0405    -1.560    -0.557    -0.521 -0.5071  0.8599  0.0584
              Bcc     0.1043     4.021     1.435     1.341  0.1643  0.0300  0.9860
 
              Baa    -0.0636    -2.454    -0.876    -0.819  0.6861  0.7273  0.0186
    40 N(14)  Bbb    -0.0177    -0.683    -0.244    -0.228  0.7271 -0.6863  0.0163
              Bcc     0.0813     3.137     1.119     1.046 -0.0246 -0.0023  0.9997
 
              Baa    -0.0255    -0.983    -0.351    -0.328  0.3106  0.9363 -0.1641
    41 N(14)  Bbb    -0.0195    -0.753    -0.269    -0.251  0.9291 -0.3355 -0.1558
              Bcc     0.0450     1.736     0.619     0.579  0.2009  0.1040  0.9741
 
              Baa    -0.0496    -1.914    -0.683    -0.638  0.7070  0.6889 -0.1595
    42 N(14)  Bbb    -0.0125    -0.482    -0.172    -0.161 -0.7043  0.7064 -0.0708
              Bcc     0.0621     2.396     0.855     0.799  0.0639  0.1624  0.9847
 
              Baa    -2.7498   -47.607   -16.987   -15.880  0.7660  0.6317 -0.1192
    43 Fe(57) Bbb    -2.1884   -37.887   -13.519   -12.638 -0.6280  0.7750  0.0713
              Bcc     4.9382    85.494    30.506    28.518  0.1374  0.0202  0.9903
 
              Baa    -0.0126    -0.487    -0.174    -0.163 -0.2169  0.9708  0.1021
    44 N(14)  Bbb    -0.0034    -0.130    -0.046    -0.043  0.8461  0.2392 -0.4763
              Bcc     0.0160     0.617     0.220     0.206  0.4868  0.0169  0.8733
 
              Baa    -0.0286    -3.840    -1.370    -1.281  0.2862  0.9092  0.3023
    45 C(13)  Bbb    -0.0040    -0.539    -0.192    -0.180  0.9293 -0.1866 -0.3186
              Bcc     0.0326     4.379     1.562     1.461  0.2333 -0.3722  0.8984
 
              Baa    -0.1382    -5.331    -1.902    -1.778 -0.0038  0.9937 -0.1121
    46 N(14)  Bbb    -0.1098    -4.233    -1.511    -1.412  0.9379 -0.0353 -0.3450
              Bcc     0.2480     9.565     3.413     3.190  0.3468  0.1065  0.9319
 
              Baa    -0.0221    -2.964    -1.058    -0.989  0.8749 -0.4737  0.1008
    47 C(13)  Bbb    -0.0185    -2.483    -0.886    -0.828  0.4282  0.6593 -0.6181
              Bcc     0.0406     5.448     1.944     1.817  0.2264  0.5839  0.7796
 
              Baa    -0.0101    -1.361    -0.486    -0.454  0.0569  0.9730 -0.2235
    48 C(13)  Bbb    -0.0043    -0.570    -0.204    -0.190  0.9178 -0.1391 -0.3719
              Bcc     0.0144     1.932     0.689     0.644  0.3929  0.1840  0.9010
 
              Baa    -0.0047    -2.521    -0.900    -0.841  0.6364  0.7642 -0.1046
    49 H(1)   Bbb    -0.0045    -2.379    -0.849    -0.794  0.6661 -0.6128 -0.4251
              Bcc     0.0092     4.900     1.749     1.635  0.3890 -0.2009  0.8991
 
              Baa    -0.1383    10.004     3.570     3.337 -0.0263  0.8776 -0.4787
    50 O(17)  Bbb    -0.1172     8.482     3.027     2.829  0.9675 -0.0980 -0.2329
              Bcc     0.2555   -18.487    -6.597    -6.167  0.2513  0.4693  0.8465
 
              Baa    -0.0041    -2.194    -0.783    -0.732  0.5058  0.7138 -0.4845
    51 H(1)   Bbb    -0.0039    -2.061    -0.735    -0.688  0.8129 -0.5824 -0.0094
              Bcc     0.0080     4.255     1.518     1.419  0.2889  0.3891  0.8747
 
              Baa    -0.0131    -7.002    -2.498    -2.336  0.9909  0.0245 -0.1324
    52 H(1)   Bbb    -0.0127    -6.790    -2.423    -2.265  0.1154 -0.6609  0.7415
              Bcc     0.0258    13.792     4.921     4.601  0.0693  0.7500  0.6578
 
              Baa    -0.0160    -8.549    -3.050    -2.852  0.8523  0.5013  0.1491
    53 H(1)   Bbb    -0.0137    -7.332    -2.616    -2.446 -0.4648  0.5953  0.6554
              Bcc     0.0298    15.880     5.667     5.297  0.2398 -0.6279  0.7404
 
              Baa    -0.0033    -1.735    -0.619    -0.579 -0.1246 -0.3208  0.9389
    54 H(1)   Bbb     0.0014     0.763     0.272     0.254  0.9872  0.0547  0.1497
              Bcc     0.0018     0.972     0.347     0.324 -0.0994  0.9456  0.3099
 
              Baa    -0.0043    -2.294    -0.819    -0.765  0.3032  0.2661  0.9150
    55 H(1)   Bbb     0.0015     0.813     0.290     0.271 -0.2764  0.9435 -0.1828
              Bcc     0.0028     1.481     0.529     0.494  0.9120  0.1975 -0.3596
 
              Baa    -0.0034    -1.811    -0.646    -0.604  0.1335  0.0489  0.9898
    56 H(1)   Bbb    -0.0016    -0.828    -0.295    -0.276  0.9663  0.2154 -0.1410
              Bcc     0.0049     2.639     0.942     0.880 -0.2201  0.9753 -0.0185
 
              Baa    -0.0416   -22.199    -7.921    -7.405 -0.3023  0.8209 -0.4845
    57 H(1)   Bbb     0.0042     2.239     0.799     0.747  0.5451  0.5659  0.6186
              Bcc     0.0374    19.959     7.122     6.658  0.7820 -0.0771 -0.6185
 
              Baa    -0.0391   -20.884    -7.452    -6.966  0.7734 -0.5661 -0.2853
    58 H(1)   Bbb     0.0039     2.089     0.745     0.697  0.5963  0.4969  0.6305
              Bcc     0.0352    18.795     6.706     6.269 -0.2151 -0.6578  0.7218
 
              Baa    -0.0194   -10.375    -3.702    -3.461  0.4631  0.8065  0.3676
    59 H(1)   Bbb    -0.0096    -5.116    -1.825    -1.706 -0.2287 -0.2920  0.9287
              Bcc     0.0290    15.491     5.528     5.167  0.8563 -0.5142  0.0492
 
              Baa    -0.0239   -12.740    -4.546    -4.250 -0.0150  0.9929 -0.1182
    60 H(1)   Bbb    -0.0048    -2.585    -0.922    -0.862  0.1972  0.1188  0.9731
              Bcc     0.0287    15.325     5.468     5.112  0.9802 -0.0087 -0.1976
 
              Baa    -0.0034    -1.837    -0.655    -0.613  0.4079 -0.0162  0.9129
    61 H(1)   Bbb    -0.0024    -1.279    -0.456    -0.427 -0.5438  0.7988  0.2572
              Bcc     0.0058     3.115     1.112     1.039  0.7334  0.6014 -0.3171
 
              Baa    -0.0041    -2.164    -0.772    -0.722 -0.0275  0.0516  0.9983
    62 H(1)   Bbb    -0.0027    -1.417    -0.505    -0.473 -0.4126  0.9090 -0.0584
              Bcc     0.0067     3.581     1.278     1.194  0.9105  0.4135  0.0037
 
              Baa    -0.0046    -2.454    -0.876    -0.819  0.3324  0.2201  0.9171
    63 H(1)   Bbb    -0.0026    -1.376    -0.491    -0.459 -0.3742  0.9234 -0.0860
              Bcc     0.0072     3.830     1.367     1.278  0.8657  0.3146 -0.3893
 
              Baa    -0.0037    -1.973    -0.704    -0.658  0.9314  0.1194  0.3438
    64 H(1)   Bbb    -0.0009    -0.457    -0.163    -0.152 -0.3623  0.3933  0.8450
              Bcc     0.0046     2.430     0.867     0.811  0.0343  0.9116 -0.4096
 
              Baa    -0.0016    -0.869    -0.310    -0.290 -0.4248  0.1089  0.8987
    65 H(1)   Bbb    -0.0001    -0.043    -0.015    -0.014 -0.2831  0.9270 -0.2461
              Bcc     0.0017     0.913     0.326     0.304  0.8599  0.3590  0.3630
 
              Baa    -0.0038    -2.043    -0.729    -0.681 -0.5539  0.2920  0.7797
    66 H(1)   Bbb    -0.0029    -1.562    -0.557    -0.521  0.8116 -0.0195  0.5839
              Bcc     0.0068     3.605     1.286     1.202  0.1857  0.9562 -0.2262
 
              Baa    -0.0065    -3.491    -1.246    -1.165  0.1898  0.1226  0.9741
    67 H(1)   Bbb    -0.0005    -0.277    -0.099    -0.092  0.9816 -0.0037 -0.1908
              Bcc     0.0071     3.768     1.344     1.257 -0.0198  0.9924 -0.1210
 
              Baa    -0.0023    -1.214    -0.433    -0.405  0.1693  0.1475  0.9745
    68 H(1)   Bbb    -0.0019    -0.997    -0.356    -0.333  0.8602  0.4605 -0.2192
              Bcc     0.0041     2.211     0.789     0.737 -0.4811  0.8753 -0.0489
 
              Baa    -0.0025    -1.359    -0.485    -0.453  0.0247 -0.2625  0.9646
    69 H(1)   Bbb    -0.0020    -1.089    -0.388    -0.363  0.8911  0.4431  0.0978
              Bcc     0.0046     2.447     0.873     0.816 -0.4531  0.8572  0.2448
 
              Baa    -0.0029    -1.542    -0.550    -0.514  0.0934 -0.0425  0.9947
    70 H(1)   Bbb    -0.0025    -1.356    -0.484    -0.452  0.9575  0.2775 -0.0780
              Bcc     0.0054     2.898     1.034     0.967 -0.2728  0.9598  0.0667
 
              Baa    -0.0028    -1.519    -0.542    -0.507  0.6240  0.6476  0.4373
    71 H(1)   Bbb    -0.0026    -1.403    -0.500    -0.468 -0.0817 -0.5025  0.8607
              Bcc     0.0055     2.921     1.042     0.974  0.7772 -0.5728 -0.2606
 
              Baa    -0.0039    -2.102    -0.750    -0.701  0.2800 -0.0990  0.9549
    72 H(1)   Bbb    -0.0031    -1.652    -0.589    -0.551  0.3440  0.9390 -0.0036
              Bcc     0.0070     3.753     1.339     1.252  0.8963 -0.3294 -0.2970
 
              Baa    -0.0024    -1.266    -0.452    -0.422  0.3095  0.7085  0.6342
    73 H(1)   Bbb    -0.0018    -0.968    -0.345    -0.323 -0.5265 -0.4277  0.7347
              Bcc     0.0042     2.233     0.797     0.745  0.7918 -0.5613  0.2407
 
              Baa    -0.0032    -1.712    -0.611    -0.571 -0.3453 -0.3669  0.8638
    74 H(1)   Bbb    -0.0024    -1.292    -0.461    -0.431  0.1883  0.8746  0.4468
              Bcc     0.0056     3.005     1.072     1.002  0.9194 -0.3169  0.2329
 
              Baa    -0.0265   -14.120    -5.038    -4.710  0.8102 -0.5859 -0.0174
    75 H(1)   Bbb    -0.0205   -10.962    -3.911    -3.656  0.5855  0.8073  0.0738
              Bcc     0.0470    25.081     8.950     8.366 -0.0291 -0.0700  0.9971
 
              Baa    -0.0747   -39.832   -14.213   -13.287  0.6977  0.6835 -0.2147
    76 H(1)   Bbb    -0.0482   -25.742    -9.185    -8.587  0.6702 -0.5168  0.5327
              Bcc     0.1229    65.574    23.398    21.873 -0.2531  0.5156  0.8186
 
              Baa    -0.0027    -1.460    -0.521    -0.487  0.4769 -0.4638  0.7467
    77 H(1)   Bbb    -0.0026    -1.364    -0.487    -0.455 -0.3750  0.6609  0.6500
              Bcc     0.0053     2.824     1.008     0.942  0.7950  0.5900 -0.1412
 
              Baa    -0.0039    -2.084    -0.744    -0.695  0.1187  0.1358  0.9836
    78 H(1)   Bbb    -0.0031    -1.669    -0.596    -0.557 -0.3912  0.9169 -0.0794
              Bcc     0.0070     3.753     1.339     1.252  0.9126  0.3753 -0.1620
 
              Baa    -0.0030    -1.606    -0.573    -0.536 -0.4446  0.2642  0.8559
    79 H(1)   Bbb    -0.0026    -1.371    -0.489    -0.457 -0.2096  0.8983 -0.3862
              Bcc     0.0056     2.978     1.062     0.993  0.8708  0.3511  0.3440
 
              Baa    -0.0023    -1.243    -0.444    -0.415 -0.3144  0.7392 -0.5956
    80 H(1)   Bbb    -0.0017    -0.924    -0.330    -0.308 -0.5919  0.3378  0.7318
              Bcc     0.0041     2.167     0.773     0.723  0.7422  0.5826  0.3313
 
              Baa    -0.0011    -0.562    -0.201    -0.187 -0.3425  0.4407  0.8298
    81 H(1)   Bbb    -0.0010    -0.533    -0.190    -0.178 -0.0255  0.8785 -0.4771
              Bcc     0.0021     1.095     0.391     0.365  0.9392  0.1846  0.2896
 
              Baa    -0.0023    -1.241    -0.443    -0.414  0.1085 -0.1923  0.9753
    82 H(1)   Bbb    -0.0019    -1.022    -0.365    -0.341  0.9157 -0.3626 -0.1733
              Bcc     0.0042     2.263     0.807     0.755  0.3870  0.9119  0.1367
 
              Baa    -0.0025    -1.348    -0.481    -0.449 -0.0519  0.1362  0.9893
    83 H(1)   Bbb    -0.0022    -1.171    -0.418    -0.391  0.9480 -0.3049  0.0917
              Bcc     0.0047     2.518     0.899     0.840  0.3141  0.9426 -0.1133
 
              Baa    -0.0021    -1.112    -0.397    -0.371  0.0352  0.0384  0.9986
    84 H(1)   Bbb    -0.0017    -0.911    -0.325    -0.304  0.8754 -0.4832 -0.0123
              Bcc     0.0038     2.023     0.722     0.675  0.4821  0.8747 -0.0506
 
              Baa    -0.0205   -10.928    -3.899    -3.645 -0.0354  0.9994 -0.0016
    85 H(1)   Bbb    -0.0037    -1.987    -0.709    -0.663  0.1425  0.0066  0.9898
              Bcc     0.0242    12.915     4.608     4.308  0.9892  0.0348 -0.1426
 
              Baa    -0.0065    -3.481    -1.242    -1.161  0.0803 -0.0733  0.9941
    86 H(1)   Bbb     0.0015     0.776     0.277     0.259  0.9855  0.1557 -0.0681
              Bcc     0.0051     2.704     0.965     0.902 -0.1498  0.9851  0.0847
 
              Baa    -0.0008    -0.431    -0.154    -0.144 -0.0302 -0.3162  0.9482
    87 H(1)   Bbb    -0.0008    -0.421    -0.150    -0.141  0.4609  0.8374  0.2939
              Bcc     0.0016     0.852     0.304     0.284  0.8870 -0.4459 -0.1204
 

 ---------------------------------------------------------------------------------

 1\1\GINC-NODE705\SP\UPBE1PBE\def2TZVP\C37H38Fe1N6O5(5)\ZHARTOVSKA\21-J
 an-2023\0\\# PBE1PBE/def2TZVP empiricaldispersion=GD3BJ int=(grid=ultr
 afine) geom=check guess=read scrf=(smd,solvent=Chloroform)\\1ccg_II_Q_
 solv\\0,5\C,0,-5.506,53.923,112.93\C,0,-7.562,57.972,114.377998\C,0,-5
 .926,60.125999,110.472\C,0,-3.654,56.113998,109.164001\C,0,-6.228,54.8
 27,113.697998\C,0,-6.758,54.532001,114.942001\C,0,-7.395,55.715,115.37
 4001\C,0,-7.147,56.641998,114.369003\C,0,-8.23,55.922001,116.644997\C,
 0,-6.626,53.173,115.640999\C,0,-5.472,53.012001,116.584\C,0,-5.394,51.
 617001,117.223999\O,0,-6.246,51.259998,118.040001\O,0,-4.475,50.847,11
 6.942001\C,0,-7.381,58.931999,113.375999\C,0,-7.941,60.210999,113.4110
 03\C,0,-7.522,60.812,112.232002\C,0,-6.685,59.879002,111.612\C,0,-8.91
 9,60.678001,114.485001\C,0,-7.826,62.055,111.651001\C,0,-8.743,63.0639
 99,112.110001\C,0,-5.081,59.252998,109.775002\C,0,-4.298,59.622002,108
 .682999\C,0,-3.589,58.445999,108.365997\C,0,-4.047,57.462002,109.22899
 6\C,0,-4.188,61.047001,108.081001\C,0,-2.635,58.152,107.377998\C,0,-2.
 272,58.924,106.227997\C,0,-4.,55.082001,110.014\C,0,-3.674,53.752998,1
 09.834\C,0,-4.208,53.123001,110.963997\C,0,-4.83,54.109001,111.714996\
 C,0,-3.02,53.098999,108.612999\C,0,-4.19,51.630001,111.269997\C,0,-3.0
 16,51.229,112.144997\C,0,-3.008,49.790001,112.600998\O,0,-2.443,49.528
 ,113.656998\O,0,-3.547,48.922001,111.917999\N,0,-6.462,56.099998,113.3
 59001\N,0,-6.701,58.710999,112.254997\N,0,-4.921,57.955002,110.103996\
 N,0,-4.723,55.273998,111.115997\Fe,0,-5.857,56.937,111.602997\N,0,-9.2
 64,56.771999,109.591003\C,0,-8.576,56.827999,110.692001\N,0,-7.374,56.
 400002,110.419998\C,0,-7.308,56.078999,109.165001\C,0,-8.548,56.317001
 ,108.603996\H,0,-10.166,57.108002,109.492996\O,0,-4.422,57.485001,112.
 862\H,0,-8.85064843,56.16247539,107.58938979\H,0,-6.44757431,55.698177
 54,108.65554772\H,0,-8.92966584,57.16293345,111.6447021\H,0,-8.4770361
 6,61.47303368,115.04846439\H,0,-9.81819471,61.02643021,114.02137835\H,
 0,-9.14761543,59.86203563,115.13832749\H,0,-8.42477212,64.08300091,112
 .18256908\H,0,-9.74325724,62.79545327,112.37882928\H,0,-7.30480636,62.
 28163653,110.74441781\H,0,-5.99760269,61.11670074,110.07415189\H,0,-3.
 29125105,61.12135216,107.50202499\H,0,-5.03415292,61.23551722,107.4537
 9539\H,0,-4.16270198,61.7673059,108.87183655\H,0,-1.30666668,58.800082
 59,105.78338924\H,0,-2.9660696,59.62481928,105.8132444\H,0,-2.10950113
 ,57.22809341,107.5010734\H,0,-3.00493131,55.8547559,108.35381376\H,0,-
 2.07770052,52.67820197,108.89566761\H,0,-3.65773385,52.32595592,108.23
 803241\H,0,-2.86771719,53.83599136,107.8523728\H,0,-4.13470648,51.0890
 761,110.34845325\H,0,-5.09898196,51.36890342,111.77047662\H,0,-2.11413
 607,51.41183062,111.59899845\H,0,-3.01659566,51.85485271,113.01287259\
 H,0,-3.57066867,57.92866188,112.862\H,0,-5.12406459,58.13975691,112.86
 2\H,0,-7.52743218,52.99509964,116.1893342\H,0,-6.54208858,52.42010505,
 114.88534824\H,0,-4.56411051,53.19346777,116.04761721\H,0,-5.56200633,
 53.74079509,117.36224034\H,0,-3.56332963,51.1294171,117.04543081\H,0,-
 7.6910114,56.54435544,117.32841945\H,0,-9.15708263,56.39154393,116.390
 14951\H,0,-8.42404701,54.97441953,117.10252855\H,0,-5.45781913,52.9303
 8165,113.32659478\H,0,-8.08069943,58.29811494,115.25520946\H,0,-3.0103
 5017,48.29644599,111.42577153\\Version=ES64L-G16RevA.03\State=5-A\HF=-
 3399.3499709\S2=6.230858\S2-1=0.\S2A=6.01458\RMSD=1.472e-09\Dipole=-0.
 8323797,-0.2868665,-3.1083076\Quadrupole=28.9974407,-23.6353784,-5.362
 0623,-12.4812013,14.1045581,40.9906723\PG=C01 [X(C37H38Fe1N6O5)]\\@


 PATIENCE IS THE ABILITY TO IDLE YOUR MOTOR WHEN
 YOU FEEL LIKE STRIPPING YOUR GEARS.
 Job cpu time:       2 days  0 hours 37 minutes 18.0 seconds.
 Elapsed time:       0 days 12 hours 11 minutes 48.4 seconds.
 File lengths (MBytes):  RWF=   3540 Int=      0 D2E=      0 Chk=    241 Scr=      1
 Normal termination of Gaussian 16 at Sat Jan 21 04:07:13 2023.
