 Entering Gaussian System, Link 0=g16
 Input=/net/homes/chemie/zhartovska/work/BioModel/Konrad/1ccg/1ccg01/1ccg.com
 Output=/net/homes/chemie/zhartovska/work/BioModel/Konrad/1ccg/1ccg01/1ccg.log
 Initial command:
 /afs/math/software/gaussian/g16.A03/g16/l1.exe "/scratch/zhartovska_gaussian.gowzPNp/Gau-20103.inp" -scrdir="/scratch/zhartovska_gaussian.gowzPNp/"
 Entering Link 1 = /afs/math/software/gaussian/g16.A03/g16/l1.exe PID=     20104.
  
 Copyright (c) 1988,1990,1992,1993,1995,1998,2003,2009,2016,
            Gaussian, Inc.  All Rights Reserved.
  
 This is part of the Gaussian(R) 16 program.  It is based on
 the Gaussian(R) 09 system (copyright 2009, Gaussian, Inc.),
 the Gaussian(R) 03 system (copyright 2003, Gaussian, Inc.),
 the Gaussian(R) 98 system (copyright 1998, Gaussian, Inc.),
 the Gaussian(R) 94 system (copyright 1995, Gaussian, Inc.),
 the Gaussian 92(TM) system (copyright 1992, Gaussian, Inc.),
 the Gaussian 90(TM) system (copyright 1990, Gaussian, Inc.),
 the Gaussian 88(TM) system (copyright 1988, Gaussian, Inc.),
 the Gaussian 86(TM) system (copyright 1986, Carnegie Mellon
 University), and the Gaussian 82(TM) system (copyright 1983,
 Carnegie Mellon University). Gaussian is a federally registered
 trademark of Gaussian, Inc.
  
 This software contains proprietary and confidential information,
 including trade secrets, belonging to Gaussian, Inc.
  
 This software is provided under written license and may be
 used, copied, transmitted, or stored only in accord with that
 written license.
  
 The following legend is applicable only to US Government
 contracts under FAR:
  
                    RESTRICTED RIGHTS LEGEND
  
 Use, reproduction and disclosure by the US Government is
 subject to restrictions as set forth in subparagraphs (a)
 and (c) of the Commercial Computer Software - Restricted
 Rights clause in FAR 52.227-19.
  
 Gaussian, Inc.
 340 Quinnipiac St., Bldg. 40, Wallingford CT 06492
  
  
 ---------------------------------------------------------------
 Warning -- This program may not be used in any manner that
 competes with the business of Gaussian, Inc. or will provide
 assistance to any competitor of Gaussian, Inc.  The licensee
 of this program is prohibited from giving any competitor of
 Gaussian, Inc. access to this program.  By using this program,
 the user acknowledges that Gaussian, Inc. is engaged in the
 business of creating and licensing software in the field of
 computational chemistry and represents and warrants to the
 licensee that it is not a competitor of Gaussian, Inc. and that
 it will not use this program in any manner prohibited above.
 ---------------------------------------------------------------
  

 Cite this work as:
 Gaussian 16, Revision A.03,
 M. J. Frisch, G. W. Trucks, H. B. Schlegel, G. E. Scuseria, 
 M. A. Robb, J. R. Cheeseman, G. Scalmani, V. Barone, 
 G. A. Petersson, H. Nakatsuji, X. Li, M. Caricato, A. V. Marenich, 
 J. Bloino, B. G. Janesko, R. Gomperts, B. Mennucci, H. P. Hratchian, 
 J. V. Ortiz, A. F. Izmaylov, J. L. Sonnenberg, D. Williams-Young, 
 F. Ding, F. Lipparini, F. Egidi, J. Goings, B. Peng, A. Petrone, 
 T. Henderson, D. Ranasinghe, V. G. Zakrzewski, J. Gao, N. Rega, 
 G. Zheng, W. Liang, M. Hada, M. Ehara, K. Toyota, R. Fukuda, 
 J. Hasegawa, M. Ishida, T. Nakajima, Y. Honda, O. Kitao, H. Nakai, 
 T. Vreven, K. Throssell, J. A. Montgomery, Jr., J. E. Peralta, 
 F. Ogliaro, M. J. Bearpark, J. J. Heyd, E. N. Brothers, K. N. Kudin, 
 V. N. Staroverov, T. A. Keith, R. Kobayashi, J. Normand, 
 K. Raghavachari, A. P. Rendell, J. C. Burant, S. S. Iyengar, 
 J. Tomasi, M. Cossi, J. M. Millam, M. Klene, C. Adamo, R. Cammi, 
 J. W. Ochterski, R. L. Martin, K. Morokuma, O. Farkas, 
 J. B. Foresman, and D. J. Fox, Gaussian, Inc., Wallingford CT, 2016.
 
 ******************************************
 Gaussian 16:  ES64L-G16RevA.03 25-Dec-2016
                14-Jan-2023 
 ******************************************
 %nprocs=12
 Will use up to   12 processors via shared memory.
 %mem=16GB
 %chk=1ccg_II_S.chk
 ---------------------------------------------------------------------
 # polar def2tzvp empiricaldispersion=gd3bj int=grid=ultrafine pbe1pbe
 ---------------------------------------------------------------------
 1/38=1,172=1/1;
 2/12=2,17=6,18=5,40=1/2;
 3/5=44,7=101,11=2,25=1,30=1,74=-13,75=-5,124=41/1,2,3;
 4//1;
 5/5=2,38=5,98=1/2;
 8/6=4,10=90,11=11/1;
 10/6=1,13=10/2;
 6/7=2,8=2,9=2,10=2,28=1/1;
 99/5=1,9=1/99;
 ---------
 1ccg_II_S
 ---------
 Symbolic Z-matrix:
 Charge =  0 Multiplicity = 1
 C                    -5.506     53.923    112.93 
 C                    -7.562     57.972    114.378 
 C                    -5.926     60.126    110.472 
 C                    -3.654     56.114    109.164 
 C                    -6.228     54.827    113.698 
 C                    -6.758     54.532    114.942 
 C                    -7.395     55.715    115.374 
 C                    -7.147     56.642    114.369 
 C                    -8.23      55.922    116.645 
 C                    -6.626     53.173    115.641 
 C                    -5.472     53.012    116.584 
 C                    -5.394     51.617    117.224 
 O                    -6.246     51.26     118.04 
 O                    -4.475     50.847    116.942 
 C                    -7.381     58.932    113.376 
 C                    -7.941     60.211    113.411 
 C                    -7.522     60.812    112.232 
 C                    -6.685     59.879    111.612 
 C                    -8.919     60.678    114.485 
 C                    -7.826     62.055    111.651 
 C                    -8.743     63.064    112.11 
 C                    -5.081     59.253    109.775 
 C                    -4.298     59.622    108.683 
 C                    -3.589     58.446    108.366 
 C                    -4.047     57.462    109.229 
 C                    -4.188     61.047    108.081 
 C                    -2.635     58.152    107.378 
 C                    -2.272     58.924    106.228 
 C                    -4.        55.082    110.014 
 C                    -3.674     53.753    109.834 
 C                    -4.208     53.123    110.964 
 C                    -4.83      54.109    111.715 
 C                    -3.02      53.099    108.613 
 C                    -4.19      51.63     111.27 
 C                    -3.016     51.229    112.145 
 C                    -3.008     49.79     112.601 
 O                    -2.443     49.528    113.657 
 O                    -3.547     48.922    111.918 
 N                    -6.462     56.1      113.359 
 N                    -6.701     58.711    112.255 
 N                    -4.921     57.955    110.104 
 N                    -4.723     55.274    111.116 
 Fe                   -5.857     56.937    111.603 
 N                    -9.264     56.772    109.591 
 C                    -8.576     56.828    110.692 
 N                    -7.374     56.4      110.42 
 C                    -7.308     56.079    109.165 
 C                    -8.548     56.317    108.604 
 H                    -10.166    57.108    109.493 
 O                    -4.422     57.485    112.862 
 H                    -8.85065   56.16248   107.58939 
 H                    -6.44757   55.69818   108.65555 
 H                    -8.92967   57.16293   111.6447 
 H                    -8.47704   61.47303   115.04846 
 H                    -9.81819   61.02643   114.02138 
 H                    -9.14762   59.86204   115.13833 
 H                    -8.42477   64.083    112.18257 
 H                    -9.74326   62.79545   112.37883 
 H                    -7.30481   62.28164   110.74442 
 H                    -5.9976    61.1167   110.07415 
 H                    -3.29125   61.12135   107.50202 
 H                    -5.03415   61.23552   107.4538 
 H                    -4.1627    61.76731   108.87184 
 H                    -1.30667   58.80008   105.78339 
 H                    -2.96607   59.62482   105.81324 
 H                    -2.1095    57.22809   107.50107 
 H                    -3.00493   55.85476   108.35381 
 H                    -2.0777    52.6782   108.89567 
 H                    -3.65773   52.32596   108.23803 
 H                    -2.86772   53.83599   107.85237 
 H                    -4.13471   51.08908   110.34845 
 H                    -5.09898   51.3689   111.77048 
 H                    -2.11414   51.41183   111.599 
 H                    -3.0166    51.85485   113.01287 
 H                    -3.57067   57.92866   112.862 
 H                    -5.12406   58.13976   112.862 
 H                    -7.52743   52.9951   116.18933 
 H                    -6.54209   52.42011   114.88535 
 H                    -4.56411   53.19347   116.04762 
 H                    -5.56201   53.7408   117.36224 
 H                    -3.56333   51.12942   117.04543 
 H                    -7.69101   56.54436   117.32842 
 H                    -9.15708   56.39154   116.39015 
 H                    -8.42405   54.97442   117.10253 
 H                    -5.45782   52.93038   113.32659 
 H                    -8.0807    58.29811   115.25521 
 H                    -3.01035   48.29645   111.42577 
 
 Stoichiometry    C37H38FeN6O5
 Framework group  C1[X(C37H38FeN6O5)]
 Deg. of freedom   255
 Full point group                 C1      NOp   1
 Largest Abelian subgroup         C1      NOp   1
 Largest concise Abelian subgroup C1      NOp   1
                         Standard orientation:                         
 ---------------------------------------------------------------------
 Center     Atomic      Atomic             Coordinates (Angstroms)
 Number     Number       Type             X           Y           Z
 ---------------------------------------------------------------------
      1          6           0       -2.347125   -0.118396    0.266940
      2          6           0        1.032194   -3.442471   -0.232027
      3          6           0        4.275182    0.005496   -0.641394
      4          6           0        0.830362    3.328305   -0.394087
      5          6           0       -1.729458   -1.358472    0.171965
      6          6           0       -2.412739   -2.562007    0.162091
      7          6           0       -1.422406   -3.560337    0.041847
      8          6           0       -0.224284   -2.864462   -0.063560
      9          6           0       -1.613800   -5.082680    0.078513
     10          6           0       -3.937964   -2.694353    0.257386
     11          6           0       -4.688401   -2.763664   -1.038349
     12          6           0       -6.211037   -2.869786   -0.859397
     13          8           0       -6.711277   -3.895741   -0.394219
     14          8           0       -6.948730   -1.940814   -1.190766
     15          6           0        2.270839   -2.794451   -0.296754
     16          6           0        3.497948   -3.460056   -0.339653
     17          6           0        4.446935   -2.447990   -0.383850
     18          6           0        3.720421   -1.254340   -0.437084
     19          6           0        3.646563   -4.971920   -0.197434
     20          6           0        5.851584   -2.474407   -0.347923
     21          6           0        6.727707   -3.604065   -0.186895
     22          6           0        3.632690    1.249217   -0.689602
     23          6           0        4.271535    2.452891   -0.980752
     24          6           0        3.226112    3.397974   -0.972701
     25          6           0        2.075418    2.713403   -0.612078
     26          6           0        5.770182    2.624982   -1.340702
     27          6           0        3.199991    4.783928   -1.198846
     28          6           0        4.299397    5.698136   -1.274909
     29          6           0       -0.378363    2.728224   -0.100626
     30          6           0       -1.546122    3.392460    0.215689
     31          6           0       -2.479160    2.363206    0.386050
     32          6           0       -1.799967    1.170766    0.186393
     33          6           0       -1.739767    4.890045    0.472621
     34          6           0       -3.938533    2.514034    0.798953
     35          6           0       -4.877845    2.571364   -0.392311
     36          6           0       -6.349898    2.583826   -0.058214
     37          8           0       -7.128233    2.125592   -0.887203
     38          8           0       -6.737399    3.050903    1.010484
     39          7           0       -0.412049   -1.545883    0.032290
     40          7           0        2.415914   -1.473068   -0.268700
     41          7           0        2.310920    1.410121   -0.475905
     42          7           0       -0.533349    1.405621   -0.074350
     43         26           0        0.953183   -0.034102    0.003887
     44          7           0        2.276907   -0.277308    3.728347
     45          6           0        1.739951   -0.785012    2.659426
     46          7           0        1.249957    0.204439    1.964542
     47          6           0        1.475700    1.318734    2.588883
     48          6           0        2.151214    1.017798    3.755969
     49          1           0        2.783842   -0.783995    4.378264
     50          8           0        0.649681   -0.381031   -1.927989
     51          1           0        2.493080    1.695089    4.510491
     52          1           0        1.190018    2.295773    2.259216
     53          1           0        1.706009   -1.821978    2.397798
     54          1           0        4.036987   -5.379027   -1.106683
     55          1           0        4.316568   -5.190269    0.607748
     56          1           0        2.690355   -5.406696    0.006369
     57          1           0        7.545125   -3.747698   -0.862245
     58          1           0        6.561914   -4.300635    0.608216
     59          1           0        6.334902   -1.525789   -0.454819
     60          1           0        5.335890    0.026968   -0.780450
     61          1           0        5.911760    3.560275   -1.840784
     62          1           0        6.356326    2.606751   -0.445715
     63          1           0        6.076446    1.826653   -1.983954
     64          1           0        4.195806    6.615671   -1.815556
     65          1           0        5.224549    5.463761   -0.791110
     66          1           0        2.229263    5.213871   -1.332024
     67          1           0        0.817472    4.395915   -0.464378
     68          1           0       -2.406652    5.294310   -0.260000
     69          1           0       -2.152999    5.033893    1.449067
     70          1           0       -0.794918    5.388062    0.408275
     71          1           0       -4.045595    3.414449    1.367012
     72          1           0       -4.211252    1.682223    1.414270
     73          1           0       -4.654454    3.455456   -0.952114
     74          1           0       -4.682963    1.721900   -1.013063
     75          1           0        0.886715   -0.024905   -2.787401
     76          1           0        1.362297   -0.936939   -1.604347
     77          1           0       -4.158022   -3.581327    0.813940
     78          1           0       -4.308133   -1.855251    0.808549
     79          1           0       -4.471352   -1.883521   -1.606801
     80          1           0       -4.347969   -3.617857   -1.585488
     81          1           0       -6.909489   -1.591975   -2.084283
     82          1           0       -1.445035   -5.486987   -0.897681
     83          1           0       -0.917970   -5.513132    0.768028
     84          1           0       -2.611831   -5.309261    0.390754
     85          1           0       -3.404677   -0.151315    0.426314
     86          1           0        1.052471   -4.508431   -0.322680
     87          1           0       -7.188037    3.898366    1.028699
 ---------------------------------------------------------------------
 Rotational constants (GHZ):           0.0821145           0.0475077           0.0339279
 Standard basis: def2TZVP (5D, 7F)
 There are  2008 symmetry adapted cartesian basis functions of A   symmetry.
 There are  1761 symmetry adapted basis functions of A   symmetry.
  1761 basis functions,  2854 primitive gaussians,  2008 cartesian basis functions
   184 alpha electrons      184 beta electrons
       nuclear repulsion energy      7372.7539489848 Hartrees.
 NAtoms=   87 NActive=   87 NUniq=   87 SFac= 1.00D+00 NAtFMM=   60 NAOKFM=T Big=T
 Integral buffers will be    131072 words long.
 Raffenetti 2 integral format.
 Two-electron integral symmetry is turned on.
 Nuclear repulsion after empirical dispersion term =     7372.6319724319 Hartrees.
 One-electron integrals computed using PRISM.
   1 Symmetry operations used in ECPInt.
 ECPInt:  NShTT=  241860 NPrTT=  750929 LenC2=  176505 LenP2D=  356554.
 LDataN:  DoStor=T MaxTD1= 6 Len=  172
 NBasis=  1761 RedAO= T EigKep=  2.72D-06  NBF=  1761
 NBsUse=  1761 1.00D-06 EigRej= -1.00D+00 NBFU=  1761
 ExpMin= 4.20D-02 ExpMax= 3.01D+05 ExpMxC= 2.91D+03 IAcc=3 IRadAn=         5 AccDes= 0.00D+00
 Harris functional with IExCor= 1009 and IRadAn=       5 diagonalized for initial guess.
 HarFok:  IExCor= 1009 AccDes= 0.00D+00 IRadAn=         5 IDoV= 1 UseB2=F ITyADJ=14
 ICtDFT=  3500011 ScaDFX=  1.000000  1.000000  1.000000  1.000000
 FoFCou: FMM=F IPFlag=           0 FMFlag=      100000 FMFlg1=        2001
         NFxFlg=           0 DoJE=T BraDBF=F KetDBF=T FulRan=T
         wScrn=  0.000000 ICntrl=       500 IOpCl=  0 I1Cent=   200000004 NGrid=           0
         NMat0=    1 NMatS0=      1 NMatT0=    0 NMatD0=    1 NMtDS0=    0 NMtDT0=    0
 Petite list used in FoFCou.
 Requested convergence on RMS density matrix=1.00D-08 within 128 cycles.
 Requested convergence on MAX density matrix=1.00D-06.
 Requested convergence on             energy=1.00D-06.
 No special actions if energy rises.
 EnCoef did     9 forward-backward iterations
 EnCoef did     8 forward-backward iterations
 Restarting incremental Fock formation.
 SCF Done:  E(RPBE1PBE) =  -3399.31414172     A.U. after   24 cycles
            NFock= 24  Conv=0.34D-08     -V/T= 2.0027
 DoSCS=F DFT=T ScalE2(SS,OS)=  1.000000  1.000000
 Range of M.O.s used for correlation:     1  1761
 NBasis=  1761 NAE=   184 NBE=   184 NFC=     0 NFV=     0
 NROrb=   1761 NOA=   184 NOB=   184 NVA=  1577 NVB=  1577

 **** Warning!!: The largest alpha MO coefficient is  0.42231228D+02


 **** Warning!!: The smallest alpha delta epsilon is  0.99933179D-01

          Differentiating once with respect to electric field.
                with respect to dipole field.
          Electric field/nuclear overlap derivatives assumed to be zero.
          There are     3 degrees of freedom in the 1st order CPHF.  IDoFFX=0 NUNeed=     3.
      3 vectors produced by pass  0 Test12= 9.67D-12 3.33D-08 XBig12= 2.25D+03 2.22D+01.
 AX will form     3 AO Fock derivatives at one time.
      3 vectors produced by pass  1 Test12= 9.67D-12 3.33D-08 XBig12= 1.41D+03 1.33D+01.
      3 vectors produced by pass  2 Test12= 9.67D-12 3.33D-08 XBig12= 5.74D+02 4.44D+00.
      3 vectors produced by pass  3 Test12= 9.67D-12 3.33D-08 XBig12= 5.72D+02 4.84D+00.
      3 vectors produced by pass  4 Test12= 9.67D-12 3.33D-08 XBig12= 2.94D+02 2.87D+00.
      3 vectors produced by pass  5 Test12= 9.67D-12 3.33D-08 XBig12= 1.33D+02 2.00D+00.
      3 vectors produced by pass  6 Test12= 9.67D-12 3.33D-08 XBig12= 8.00D+01 1.41D+00.
      3 vectors produced by pass  7 Test12= 9.67D-12 3.33D-08 XBig12= 4.26D+01 1.29D+00.
      3 vectors produced by pass  8 Test12= 9.67D-12 3.33D-08 XBig12= 2.38D+01 7.36D-01.
      3 vectors produced by pass  9 Test12= 9.67D-12 3.33D-08 XBig12= 9.89D+00 4.98D-01.
      3 vectors produced by pass 10 Test12= 9.67D-12 3.33D-08 XBig12= 5.60D+00 4.11D-01.
      3 vectors produced by pass 11 Test12= 9.67D-12 3.33D-08 XBig12= 2.04D+00 2.54D-01.
      3 vectors produced by pass 12 Test12= 9.67D-12 3.33D-08 XBig12= 1.09D+00 1.96D-01.
      3 vectors produced by pass 13 Test12= 9.67D-12 3.33D-08 XBig12= 4.90D-01 1.03D-01.
      3 vectors produced by pass 14 Test12= 9.67D-12 3.33D-08 XBig12= 3.31D-01 8.81D-02.
      3 vectors produced by pass 15 Test12= 9.67D-12 3.33D-08 XBig12= 9.13D-02 5.02D-02.
      3 vectors produced by pass 16 Test12= 9.67D-12 3.33D-08 XBig12= 3.68D-02 4.32D-02.
      3 vectors produced by pass 17 Test12= 9.67D-12 3.33D-08 XBig12= 1.25D-02 2.60D-02.
      3 vectors produced by pass 18 Test12= 9.67D-12 3.33D-08 XBig12= 3.67D-03 1.38D-02.
      3 vectors produced by pass 19 Test12= 9.67D-12 3.33D-08 XBig12= 1.03D-03 8.39D-03.
      3 vectors produced by pass 20 Test12= 9.67D-12 3.33D-08 XBig12= 2.50D-04 2.73D-03.
      3 vectors produced by pass 21 Test12= 9.67D-12 3.33D-08 XBig12= 5.71D-05 1.32D-03.
      3 vectors produced by pass 22 Test12= 9.67D-12 3.33D-08 XBig12= 1.60D-05 6.49D-04.
      3 vectors produced by pass 23 Test12= 9.67D-12 3.33D-08 XBig12= 3.97D-06 3.13D-04.
      3 vectors produced by pass 24 Test12= 9.67D-12 3.33D-08 XBig12= 9.10D-07 1.90D-04.
      3 vectors produced by pass 25 Test12= 9.67D-12 3.33D-08 XBig12= 1.78D-07 5.34D-05.
      3 vectors produced by pass 26 Test12= 9.67D-12 3.33D-08 XBig12= 4.14D-08 2.29D-05.
      3 vectors produced by pass 27 Test12= 9.67D-12 3.33D-08 XBig12= 6.69D-09 8.95D-06.
      3 vectors produced by pass 28 Test12= 9.67D-12 3.33D-08 XBig12= 1.27D-09 3.74D-06.
      3 vectors produced by pass 29 Test12= 9.67D-12 3.33D-08 XBig12= 2.10D-10 2.46D-06.
      3 vectors produced by pass 30 Test12= 9.67D-12 3.33D-08 XBig12= 3.16D-11 9.85D-07.
      3 vectors produced by pass 31 Test12= 9.67D-12 3.33D-08 XBig12= 5.21D-12 5.26D-07.
      3 vectors produced by pass 32 Test12= 9.67D-12 3.33D-08 XBig12= 1.34D-12 2.44D-07.
      3 vectors produced by pass 33 Test12= 9.67D-12 3.33D-08 XBig12= 5.94D-13 7.51D-08.
      1 vectors produced by pass 34 Test12= 9.67D-12 3.33D-08 XBig12= 1.11D-13 7.38D-08.
 InvSVY:  IOpt=1 It=  1 EMax= 2.13D-14
 Solved reduced A of dimension   103 with     3 vectors.
 Isotropic polarizability for W=    0.000000      664.52 Bohr**3.
 End of Minotr F.D. properties file   721 does not exist.
 End of Minotr F.D. properties file   722 does not exist.
 End of Minotr F.D. properties file   788 does not exist.

 **********************************************************************

            Population analysis using the SCF density.

 **********************************************************************

 Orbital symmetries:
       Occupied  (A) (A) (A) (A) (A) (A) (A) (A) (A) (A) (A) (A)
                 (A) (A) (A) (A) (A) (A) (A) (A) (A) (A) (A) (A)
                 (A) (A) (A) (A) (A) (A) (A) (A) (A) (A) (A) (A)
                 (A) (A) (A) (A) (A) (A) (A) (A) (A) (A) (A) (A)
                 (A) (A) (A) (A) (A) (A) (A) (A) (A) (A) (A) (A)
                 (A) (A) (A) (A) (A) (A) (A) (A) (A) (A) (A) (A)
                 (A) (A) (A) (A) (A) (A) (A) (A) (A) (A) (A) (A)
                 (A) (A) (A) (A) (A) (A) (A) (A) (A) (A) (A) (A)
                 (A) (A) (A) (A) (A) (A) (A) (A) (A) (A) (A) (A)
                 (A) (A) (A) (A) (A) (A) (A) (A) (A) (A) (A) (A)
                 (A) (A) (A) (A) (A) (A) (A) (A) (A) (A) (A) (A)
                 (A) (A) (A) (A) (A) (A) (A) (A) (A) (A) (A) (A)
                 (A) (A) (A) (A) (A) (A) (A) (A) (A) (A) (A) (A)
                 (A) (A) (A) (A) (A) (A) (A) (A) (A) (A) (A) (A)
                 (A) (A) (A) (A) (A) (A) (A) (A) (A) (A) (A) (A)
                 (A) (A) (A) (A)
       Virtual   (A) (A) (A) (A) (A) (A) (A) (A) (A) (A) (A) (A)
                 (A) (A) (A) (A) (A) (A) (A) (A) (A) (A) (A) (A)
                 (A) (A) (A) (A) (A) (A) (A) (A) (A) (A) (A) (A)
                 (A) (A) (A) (A) (A) (A) (A) (A) (A) (A) (A) (A)
                 (A) (A) (A) (A) (A) (A) (A) (A) (A) (A) (A) (A)
                 (A) (A) (A) (A) (A) (A) (A) (A) (A) (A) (A) (A)
                 (A) (A) (A) (A) (A) (A) (A) (A) (A) (A) (A) (A)
                 (A) (A) (A) (A) (A) (A) (A) (A) (A) (A) (A) (A)
                 (A) (A) (A) (A) (A) (A) (A) (A) (A) (A) (A) (A)
                 (A) (A) (A) (A) (A) (A) (A) (A) (A) (A) (A) (A)
                 (A) (A) (A) (A) (A) (A) (A) (A) (A) (A) (A) (A)
                 (A) (A) (A) (A) (A) (A) (A) (A) (A) (A) (A) (A)
                 (A) (A) (A) (A) (A) (A) (A) (A) (A) (A) (A) (A)
                 (A) (A) (A) (A) (A) (A) (A) (A) (A) (A) (A) (A)
                 (A) (A) (A) (A) (A) (A) (A) (A) (A) (A) (A) (A)
                 (A) (A) (A) (A) (A) (A) (A) (A) (A) (A) (A) (A)
                 (A) (A) (A) (A) (A) (A) (A) (A) (A) (A) (A) (A)
                 (A) (A) (A) (A) (A) (A) (A) (A) (A) (A) (A) (A)
                 (A) (A) (A) (A) (A) (A) (A) (A) (A) (A) (A) (A)
                 (A) (A) (A) (A) (A) (A) (A) (A) (A) (A) (A) (A)
                 (A) (A) (A) (A) (A) (A) (A) (A) (A) (A) (A) (A)
                 (A) (A) (A) (A) (A) (A) (A) (A) (A) (A) (A) (A)
                 (A) (A) (A) (A) (A) (A) (A) (A) (A) (A) (A) (A)
                 (A) (A) (A) (A) (A) (A) (A) (A) (A) (A) (A) (A)
                 (A) (A) (A) (A) (A) (A) (A) (A) (A) (A) (A) (A)
                 (A) (A) (A) (A) (A) (A) (A) (A) (A) (A) (A) (A)
                 (A) (A) (A) (A) (A) (A) (A) (A) (A) (A) (A) (A)
                 (A) (A) (A) (A) (A) (A) (A) (A) (A) (A) (A) (A)
                 (A) (A) (A) (A) (A) (A) (A) (A) (A) (A) (A) (A)
                 (A) (A) (A) (A) (A) (A) (A) (A) (A) (A) (A) (A)
                 (A) (A) (A) (A) (A) (A) (A) (A) (A) (A) (A) (A)
                 (A) (A) (A) (A) (A) (A) (A) (A) (A) (A) (A) (A)
                 (A) (A) (A) (A) (A) (A) (A) (A) (A) (A) (A) (A)
                 (A) (A) (A) (A) (A) (A) (A) (A) (A) (A) (A) (A)
                 (A) (A) (A) (A) (A) (A) (A) (A) (A) (A) (A) (A)
                 (A) (A) (A) (A) (A) (A) (A) (A) (A) (A) (A) (A)
                 (A) (A) (A) (A) (A) (A) (A) (A) (A) (A) (A) (A)
                 (A) (A) (A) (A) (A) (A) (A) (A) (A) (A) (A) (A)
                 (A) (A) (A) (A) (A) (A) (A) (A) (A) (A) (A) (A)
                 (A) (A) (A) (A) (A) (A) (A) (A) (A) (A) (A) (A)
                 (A) (A) (A) (A) (A) (A) (A) (A) (A) (A) (A) (A)
                 (A) (A) (A) (A) (A) (A) (A) (A) (A) (A) (A) (A)
                 (A) (A) (A) (A) (A) (A) (A) (A) (A) (A) (A) (A)
                 (A) (A) (A) (A) (A) (A) (A) (A) (A) (A) (A) (A)
                 (A) (A) (A) (A) (A) (A) (A) (A) (A) (A) (A) (A)
                 (A) (A) (A) (A) (A) (A) (A) (A) (A) (A) (A) (A)
                 (A) (A) (A) (A) (A) (A) (A) (A) (A) (A) (A) (A)
                 (A) (A) (A) (A) (A) (A) (A) (A) (A) (A) (A) (A)
                 (A) (A) (A) (A) (A) (A) (A) (A) (A) (A) (A) (A)
                 (A) (A) (A) (A) (A) (A) (A) (A) (A) (A) (A) (A)
                 (A) (A) (A) (A) (A) (A) (A) (A) (A) (A) (A) (A)
                 (A) (A) (A) (A) (A) (A) (A) (A) (A) (A) (A) (A)
                 (A) (A) (A) (A) (A) (A) (A) (A) (A) (A) (A) (A)
                 (A) (A) (A) (A) (A) (A) (A) (A) (A) (A) (A) (A)
                 (A) (A) (A) (A) (A) (A) (A) (A) (A) (A) (A) (A)
                 (A) (A) (A) (A) (A) (A) (A) (A) (A) (A) (A) (A)
                 (A) (A) (A) (A) (A) (A) (A) (A) (A) (A) (A) (A)
                 (A) (A) (A) (A) (A) (A) (A) (A) (A) (A) (A) (A)
                 (A) (A) (A) (A) (A) (A) (A) (A) (A) (A) (A) (A)
                 (A) (A) (A) (A) (A) (A) (A) (A) (A) (A) (A) (A)
                 (A) (A) (A) (A) (A) (A) (A) (A) (A) (A) (A) (A)
                 (A) (A) (A) (A) (A) (A) (A) (A) (A) (A) (A) (A)
                 (A) (A) (A) (A) (A) (A) (A) (A) (A) (A) (A) (A)
                 (A) (A) (A) (A) (A) (A) (A) (A) (A) (A) (A) (A)
                 (A) (A) (A) (A) (A) (A) (A) (A) (A) (A) (A) (A)
                 (A) (A) (A) (A) (A) (A) (A) (A) (A) (A) (A) (A)
                 (A) (A) (A) (A) (A) (A) (A) (A) (A) (A) (A) (A)
                 (A) (A) (A) (A) (A) (A) (A) (A) (A) (A) (A) (A)
                 (A) (A) (A) (A) (A) (A) (A) (A) (A) (A) (A) (A)
                 (A) (A) (A) (A) (A) (A) (A) (A) (A) (A) (A) (A)
                 (A) (A) (A) (A) (A) (A) (A) (A) (A) (A) (A) (A)
                 (A) (A) (A) (A) (A) (A) (A) (A) (A) (A) (A) (A)
                 (A) (A) (A) (A) (A) (A) (A) (A) (A) (A) (A) (A)
                 (A) (A) (A) (A) (A) (A) (A) (A) (A) (A) (A) (A)
                 (A) (A) (A) (A) (A) (A) (A) (A) (A) (A) (A) (A)
                 (A) (A) (A) (A) (A) (A) (A) (A) (A) (A) (A) (A)
                 (A) (A) (A) (A) (A) (A) (A) (A) (A) (A) (A) (A)
                 (A) (A) (A) (A) (A) (A) (A) (A) (A) (A) (A) (A)
                 (A) (A) (A) (A) (A) (A) (A) (A) (A) (A) (A) (A)
                 (A) (A) (A) (A) (A) (A) (A) (A) (A) (A) (A) (A)
                 (A) (A) (A) (A) (A) (A) (A) (A) (A) (A) (A) (A)
                 (A) (A) (A) (A) (A) (A) (A) (A) (A) (A) (A) (A)
                 (A) (A) (A) (A) (A) (A) (A) (A) (A) (A) (A) (A)
                 (A) (A) (A) (A) (A) (A) (A) (A) (A) (A) (A) (A)
                 (A) (A) (A) (A) (A) (A) (A) (A) (A) (A) (A) (A)
                 (A) (A) (A) (A) (A) (A) (A) (A) (A) (A) (A) (A)
                 (A) (A) (A) (A) (A) (A) (A) (A) (A) (A) (A) (A)
                 (A) (A) (A) (A) (A) (A) (A) (A) (A) (A) (A) (A)
                 (A) (A) (A) (A) (A) (A) (A) (A) (A) (A) (A) (A)
                 (A) (A) (A) (A) (A) (A) (A) (A) (A) (A) (A) (A)
                 (A) (A) (A) (A) (A) (A) (A) (A) (A) (A) (A) (A)
                 (A) (A) (A) (A) (A) (A) (A) (A) (A) (A) (A) (A)
                 (A) (A) (A) (A) (A) (A) (A) (A) (A) (A) (A) (A)
                 (A) (A) (A) (A) (A) (A) (A) (A) (A) (A) (A) (A)
                 (A) (A) (A) (A) (A) (A) (A) (A) (A) (A) (A) (A)
                 (A) (A) (A) (A) (A) (A) (A) (A) (A) (A) (A) (A)
                 (A) (A) (A) (A) (A) (A) (A) (A) (A) (A) (A) (A)
                 (A) (A) (A) (A) (A) (A) (A) (A) (A) (A) (A) (A)
                 (A) (A) (A) (A) (A) (A) (A) (A) (A) (A) (A) (A)
                 (A) (A) (A) (A) (A) (A) (A) (A) (A) (A) (A) (A)
                 (A) (A) (A) (A) (A) (A) (A) (A) (A) (A) (A) (A)
                 (A) (A) (A) (A) (A) (A) (A) (A) (A) (A) (A) (A)
                 (A) (A) (A) (A) (A) (A) (A) (A) (A) (A) (A) (A)
                 (A) (A) (A) (A) (A) (A) (A) (A) (A) (A) (A) (A)
                 (A) (A) (A) (A) (A) (A) (A) (A) (A) (A) (A) (A)
                 (A) (A) (A) (A) (A) (A) (A) (A) (A) (A) (A) (A)
                 (A) (A) (A) (A) (A) (A) (A) (A) (A) (A) (A) (A)
                 (A) (A) (A) (A) (A) (A) (A) (A) (A) (A) (A) (A)
                 (A) (A) (A) (A) (A) (A) (A) (A) (A) (A) (A) (A)
                 (A) (A) (A) (A) (A) (A) (A) (A) (A) (A) (A) (A)
                 (A) (A) (A) (A) (A) (A) (A) (A) (A) (A) (A) (A)
                 (A) (A) (A) (A) (A) (A) (A) (A) (A) (A) (A) (A)
                 (A) (A) (A) (A) (A) (A) (A) (A) (A) (A) (A) (A)
                 (A) (A) (A) (A) (A) (A) (A) (A) (A) (A) (A) (A)
                 (A) (A) (A) (A) (A) (A) (A) (A) (A) (A) (A) (A)
                 (A) (A) (A) (A) (A) (A) (A) (A) (A) (A) (A) (A)
                 (A) (A) (A) (A) (A) (A) (A) (A) (A) (A) (A) (A)
                 (A) (A) (A) (A) (A) (A) (A) (A) (A) (A) (A) (A)
                 (A) (A) (A) (A) (A) (A) (A) (A) (A) (A) (A) (A)
                 (A) (A) (A) (A) (A) (A) (A) (A) (A) (A) (A) (A)
                 (A) (A) (A) (A) (A) (A) (A) (A) (A) (A) (A) (A)
                 (A) (A) (A) (A) (A) (A) (A) (A) (A) (A) (A) (A)
                 (A) (A) (A) (A) (A) (A) (A) (A) (A) (A) (A) (A)
                 (A) (A) (A) (A) (A) (A) (A) (A) (A) (A) (A) (A)
                 (A) (A) (A) (A) (A) (A) (A) (A) (A) (A) (A) (A)
                 (A) (A) (A) (A) (A) (A) (A) (A) (A) (A) (A) (A)
                 (A) (A) (A) (A) (A) (A) (A) (A) (A) (A) (A) (A)
                 (A) (A) (A) (A) (A) (A) (A) (A) (A) (A) (A) (A)
                 (A) (A) (A) (A) (A) (A) (A) (A) (A) (A) (A) (A)
                 (A) (A) (A) (A) (A) (A) (A) (A) (A) (A) (A) (A)
                 (A) (A) (A) (A) (A) (A) (A) (A) (A) (A) (A) (A)
                 (A) (A) (A) (A) (A)
 The electronic state is 1-A.
 Alpha  occ. eigenvalues -- -256.31251 -30.07882 -25.90619 -25.90451 -25.90330
 Alpha  occ. eigenvalues --  -19.25785 -19.24948 -19.20948 -19.17888 -19.16664
 Alpha  occ. eigenvalues --  -14.46135 -14.39809 -14.37707 -14.36698 -14.35891
 Alpha  occ. eigenvalues --  -14.35591 -10.34854 -10.33983 -10.28336 -10.25709
 Alpha  occ. eigenvalues --  -10.24765 -10.24729 -10.24240 -10.24195 -10.23975
 Alpha  occ. eigenvalues --  -10.23891 -10.23874 -10.23495 -10.23486 -10.23438
 Alpha  occ. eigenvalues --  -10.23173 -10.23135 -10.22896 -10.22711 -10.22520
 Alpha  occ. eigenvalues --  -10.22470 -10.22447 -10.22390 -10.22380 -10.22327
 Alpha  occ. eigenvalues --  -10.22215 -10.22182 -10.22151 -10.22128 -10.22047
 Alpha  occ. eigenvalues --  -10.22011 -10.21980 -10.21922 -10.21781 -10.21723
 Alpha  occ. eigenvalues --  -10.21599 -10.21559 -10.21371  -3.42847  -2.18899
 Alpha  occ. eigenvalues --   -2.18255  -2.18073  -1.18136  -1.16882  -1.10977
 Alpha  occ. eigenvalues --   -1.05743  -1.03736  -1.02219  -1.00994  -0.99884
 Alpha  occ. eigenvalues --   -0.99094  -0.98595  -0.94692  -0.84614  -0.83857
 Alpha  occ. eigenvalues --   -0.83609  -0.83329  -0.82486  -0.81967  -0.81428
 Alpha  occ. eigenvalues --   -0.79959  -0.79537  -0.78691  -0.77442  -0.76091
 Alpha  occ. eigenvalues --   -0.75588  -0.74127  -0.72824  -0.72417  -0.71812
 Alpha  occ. eigenvalues --   -0.70406  -0.70051  -0.68868  -0.67977  -0.67269
 Alpha  occ. eigenvalues --   -0.67057  -0.66025  -0.65690  -0.64629  -0.63387
 Alpha  occ. eigenvalues --   -0.62340  -0.61086  -0.59380  -0.58917  -0.58561
 Alpha  occ. eigenvalues --   -0.57036  -0.55798  -0.55132  -0.53817  -0.53208
 Alpha  occ. eigenvalues --   -0.53009  -0.52805  -0.52598  -0.52401  -0.51523
 Alpha  occ. eigenvalues --   -0.50708  -0.50050  -0.49775  -0.49308  -0.49111
 Alpha  occ. eigenvalues --   -0.48747  -0.48706  -0.48378  -0.47398  -0.46556
 Alpha  occ. eigenvalues --   -0.46150  -0.46091  -0.45441  -0.45234  -0.45086
 Alpha  occ. eigenvalues --   -0.44968  -0.44858  -0.44627  -0.44372  -0.43977
 Alpha  occ. eigenvalues --   -0.43808  -0.43500  -0.43222  -0.42924  -0.42446
 Alpha  occ. eigenvalues --   -0.42288  -0.41870  -0.41678  -0.41480  -0.41335
 Alpha  occ. eigenvalues --   -0.40699  -0.40399  -0.39970  -0.39580  -0.39501
 Alpha  occ. eigenvalues --   -0.38981  -0.38906  -0.38682  -0.38177  -0.38093
 Alpha  occ. eigenvalues --   -0.37629  -0.37270  -0.36951  -0.36620  -0.36554
 Alpha  occ. eigenvalues --   -0.35987  -0.35930  -0.35218  -0.35060  -0.34792
 Alpha  occ. eigenvalues --   -0.34256  -0.33975  -0.33543  -0.33298  -0.32028
 Alpha  occ. eigenvalues --   -0.31903  -0.30634  -0.30588  -0.30338  -0.29730
 Alpha  occ. eigenvalues --   -0.28278  -0.27951  -0.27687  -0.26855  -0.25912
 Alpha  occ. eigenvalues --   -0.24006  -0.23869  -0.22356  -0.21508  -0.20910
 Alpha  occ. eigenvalues --   -0.19728  -0.19359  -0.19094  -0.18724
 Alpha virt. eigenvalues --   -0.08731  -0.08292  -0.05086  -0.02698  -0.01425
 Alpha virt. eigenvalues --    0.00257   0.00559   0.01011   0.01766   0.02575
 Alpha virt. eigenvalues --    0.03133   0.03728   0.03855   0.03896   0.04501
 Alpha virt. eigenvalues --    0.04560   0.05340   0.05699   0.05977   0.06299
 Alpha virt. eigenvalues --    0.06620   0.07187   0.07841   0.07972   0.08123
 Alpha virt. eigenvalues --    0.08389   0.08709   0.08720   0.09046   0.09414
 Alpha virt. eigenvalues --    0.09741   0.10100   0.10381   0.10653   0.11131
 Alpha virt. eigenvalues --    0.11264   0.11452   0.11765   0.12059   0.12434
 Alpha virt. eigenvalues --    0.12736   0.12871   0.12989   0.13358   0.13691
 Alpha virt. eigenvalues --    0.14025   0.14266   0.14339   0.14727   0.14926
 Alpha virt. eigenvalues --    0.14974   0.15234   0.15358   0.15695   0.15796
 Alpha virt. eigenvalues --    0.16286   0.16482   0.16593   0.16854   0.17192
 Alpha virt. eigenvalues --    0.17248   0.17329   0.17842   0.18100   0.18451
 Alpha virt. eigenvalues --    0.18671   0.18757   0.18919   0.19178   0.19580
 Alpha virt. eigenvalues --    0.19894   0.20111   0.20228   0.20603   0.20759
 Alpha virt. eigenvalues --    0.21148   0.21219   0.21626   0.21879   0.22003
 Alpha virt. eigenvalues --    0.22209   0.22369   0.22637   0.22876   0.22931
 Alpha virt. eigenvalues --    0.23119   0.23438   0.23506   0.23756   0.23814
 Alpha virt. eigenvalues --    0.24240   0.24531   0.24665   0.25031   0.25271
 Alpha virt. eigenvalues --    0.25364   0.26209   0.26289   0.26540   0.26718
 Alpha virt. eigenvalues --    0.26977   0.27123   0.27347   0.27480   0.27804
 Alpha virt. eigenvalues --    0.27862   0.28304   0.28501   0.28580   0.28988
 Alpha virt. eigenvalues --    0.29135   0.29326   0.29561   0.29766   0.29953
 Alpha virt. eigenvalues --    0.30327   0.30544   0.30977   0.31133   0.31313
 Alpha virt. eigenvalues --    0.31555   0.31702   0.31947   0.32237   0.32518
 Alpha virt. eigenvalues --    0.32585   0.33211   0.33405   0.33718   0.33810
 Alpha virt. eigenvalues --    0.34320   0.34557   0.35037   0.35094   0.35382
 Alpha virt. eigenvalues --    0.35783   0.35907   0.35952   0.36266   0.36760
 Alpha virt. eigenvalues --    0.37042   0.37195   0.37401   0.37731   0.37815
 Alpha virt. eigenvalues --    0.38273   0.38290   0.38550   0.38741   0.38861
 Alpha virt. eigenvalues --    0.38961   0.39297   0.39381   0.39521   0.39585
 Alpha virt. eigenvalues --    0.39919   0.40141   0.40255   0.40363   0.40757
 Alpha virt. eigenvalues --    0.40871   0.41084   0.41303   0.41671   0.41753
 Alpha virt. eigenvalues --    0.41922   0.42128   0.42241   0.42657   0.42918
 Alpha virt. eigenvalues --    0.43032   0.43297   0.43525   0.43536   0.43757
 Alpha virt. eigenvalues --    0.44096   0.44337   0.44477   0.44587   0.45153
 Alpha virt. eigenvalues --    0.45232   0.45386   0.45445   0.45650   0.45792
 Alpha virt. eigenvalues --    0.46013   0.46135   0.46282   0.46760   0.46821
 Alpha virt. eigenvalues --    0.47073   0.47292   0.47396   0.47605   0.47679
 Alpha virt. eigenvalues --    0.47810   0.48403   0.48511   0.48759   0.48915
 Alpha virt. eigenvalues --    0.49113   0.49273   0.49432   0.49726   0.49938
 Alpha virt. eigenvalues --    0.50251   0.50312   0.50539   0.50651   0.50736
 Alpha virt. eigenvalues --    0.51018   0.51197   0.51454   0.51601   0.51815
 Alpha virt. eigenvalues --    0.51975   0.52186   0.52379   0.52518   0.52728
 Alpha virt. eigenvalues --    0.53069   0.53236   0.53269   0.53356   0.53462
 Alpha virt. eigenvalues --    0.53807   0.53980   0.54253   0.54410   0.54958
 Alpha virt. eigenvalues --    0.55071   0.55347   0.55605   0.55701   0.56227
 Alpha virt. eigenvalues --    0.56449   0.56521   0.56696   0.56872   0.57207
 Alpha virt. eigenvalues --    0.57485   0.57706   0.58146   0.58227   0.58816
 Alpha virt. eigenvalues --    0.59077   0.59182   0.59395   0.59860   0.59913
 Alpha virt. eigenvalues --    0.60056   0.60396   0.60818   0.60934   0.61161
 Alpha virt. eigenvalues --    0.61505   0.61963   0.62135   0.62335   0.62708
 Alpha virt. eigenvalues --    0.62846   0.63032   0.63184   0.63370   0.63884
 Alpha virt. eigenvalues --    0.64205   0.64274   0.64851   0.64872   0.65004
 Alpha virt. eigenvalues --    0.65550   0.65750   0.66061   0.66505   0.66700
 Alpha virt. eigenvalues --    0.66850   0.66979   0.67341   0.67584   0.68150
 Alpha virt. eigenvalues --    0.68200   0.68389   0.68481   0.68629   0.68980
 Alpha virt. eigenvalues --    0.69467   0.69785   0.70192   0.70352   0.70551
 Alpha virt. eigenvalues --    0.70994   0.71233   0.71417   0.71666   0.71694
 Alpha virt. eigenvalues --    0.71933   0.72342   0.72568   0.72625   0.73252
 Alpha virt. eigenvalues --    0.73477   0.73843   0.74221   0.74610   0.74707
 Alpha virt. eigenvalues --    0.74959   0.75355   0.75756   0.75835   0.76167
 Alpha virt. eigenvalues --    0.76509   0.76795   0.77155   0.77509   0.77746
 Alpha virt. eigenvalues --    0.77909   0.78133   0.78529   0.78716   0.79080
 Alpha virt. eigenvalues --    0.79237   0.79378   0.79757   0.79792   0.80086
 Alpha virt. eigenvalues --    0.80678   0.81104   0.81856   0.82018   0.82449
 Alpha virt. eigenvalues --    0.82651   0.82705   0.83078   0.83263   0.83633
 Alpha virt. eigenvalues --    0.83828   0.84262   0.84511   0.84751   0.84982
 Alpha virt. eigenvalues --    0.85321   0.85951   0.86158   0.86480   0.87040
 Alpha virt. eigenvalues --    0.87206   0.87700   0.87966   0.88172   0.88397
 Alpha virt. eigenvalues --    0.88774   0.89072   0.89340   0.90162   0.90242
 Alpha virt. eigenvalues --    0.90407   0.91342   0.91617   0.92048   0.92359
 Alpha virt. eigenvalues --    0.92593   0.92943   0.93504   0.93796   0.94277
 Alpha virt. eigenvalues --    0.94430   0.94497   0.94917   0.94947   0.95458
 Alpha virt. eigenvalues --    0.95814   0.96392   0.96573   0.96689   0.97312
 Alpha virt. eigenvalues --    0.97414   0.97888   0.98263   0.98460   0.98699
 Alpha virt. eigenvalues --    0.98980   0.99558   0.99758   0.99941   1.00480
 Alpha virt. eigenvalues --    1.00653   1.00827   1.01181   1.01790   1.01944
 Alpha virt. eigenvalues --    1.02331   1.02736   1.02854   1.03251   1.03332
 Alpha virt. eigenvalues --    1.03527   1.03577   1.04414   1.04440   1.04664
 Alpha virt. eigenvalues --    1.05062   1.05421   1.05741   1.05956   1.06087
 Alpha virt. eigenvalues --    1.06315   1.06915   1.07371   1.07592   1.07891
 Alpha virt. eigenvalues --    1.08345   1.08589   1.08900   1.09088   1.09450
 Alpha virt. eigenvalues --    1.10072   1.10199   1.10588   1.11150   1.11239
 Alpha virt. eigenvalues --    1.11380   1.11640   1.11873   1.12390   1.12739
 Alpha virt. eigenvalues --    1.13028   1.13486   1.13913   1.14076   1.14519
 Alpha virt. eigenvalues --    1.15033   1.15234   1.15403   1.15530   1.16188
 Alpha virt. eigenvalues --    1.16813   1.17169   1.17583   1.17688   1.18156
 Alpha virt. eigenvalues --    1.18414   1.18878   1.19437   1.19877   1.20199
 Alpha virt. eigenvalues --    1.20496   1.20859   1.21263   1.22085   1.22330
 Alpha virt. eigenvalues --    1.22784   1.23529   1.23587   1.24255   1.24488
 Alpha virt. eigenvalues --    1.24655   1.25534   1.25636   1.26152   1.26265
 Alpha virt. eigenvalues --    1.26861   1.26984   1.27643   1.27855   1.28129
 Alpha virt. eigenvalues --    1.28515   1.29056   1.29135   1.29480   1.29798
 Alpha virt. eigenvalues --    1.30452   1.30602   1.31179   1.31737   1.31942
 Alpha virt. eigenvalues --    1.32137   1.32512   1.32826   1.33369   1.34269
 Alpha virt. eigenvalues --    1.34582   1.34933   1.35249   1.35633   1.35750
 Alpha virt. eigenvalues --    1.36167   1.36980   1.37249   1.37704   1.38121
 Alpha virt. eigenvalues --    1.38194   1.38541   1.39368   1.39907   1.40267
 Alpha virt. eigenvalues --    1.40756   1.40942   1.41403   1.42113   1.42161
 Alpha virt. eigenvalues --    1.42758   1.43427   1.43591   1.44104   1.44326
 Alpha virt. eigenvalues --    1.44851   1.45083   1.45408   1.45511   1.45967
 Alpha virt. eigenvalues --    1.46443   1.46803   1.46990   1.47667   1.47999
 Alpha virt. eigenvalues --    1.48399   1.48795   1.48850   1.49066   1.49365
 Alpha virt. eigenvalues --    1.49576   1.49823   1.50170   1.50411   1.50823
 Alpha virt. eigenvalues --    1.51088   1.51308   1.51761   1.52240   1.52449
 Alpha virt. eigenvalues --    1.52731   1.52882   1.53192   1.53494   1.53577
 Alpha virt. eigenvalues --    1.54049   1.54655   1.54910   1.55073   1.55401
 Alpha virt. eigenvalues --    1.55727   1.56107   1.56470   1.56551   1.57014
 Alpha virt. eigenvalues --    1.57182   1.57395   1.57682   1.58301   1.58456
 Alpha virt. eigenvalues --    1.59035   1.59093   1.59288   1.59727   1.60013
 Alpha virt. eigenvalues --    1.60223   1.60510   1.60665   1.60905   1.61114
 Alpha virt. eigenvalues --    1.61326   1.61637   1.62037   1.62149   1.62306
 Alpha virt. eigenvalues --    1.62709   1.62887   1.63190   1.63437   1.63748
 Alpha virt. eigenvalues --    1.64011   1.64336   1.64494   1.64940   1.65104
 Alpha virt. eigenvalues --    1.65427   1.65640   1.66113   1.66153   1.66615
 Alpha virt. eigenvalues --    1.66802   1.67342   1.67658   1.68154   1.68582
 Alpha virt. eigenvalues --    1.68765   1.69461   1.69552   1.69999   1.70358
 Alpha virt. eigenvalues --    1.70786   1.71111   1.71266   1.71376   1.72028
 Alpha virt. eigenvalues --    1.72306   1.72379   1.72858   1.73421   1.73789
 Alpha virt. eigenvalues --    1.74445   1.74737   1.75098   1.75222   1.75659
 Alpha virt. eigenvalues --    1.75888   1.76145   1.76458   1.77236   1.78061
 Alpha virt. eigenvalues --    1.78268   1.78588   1.78826   1.79111   1.79634
 Alpha virt. eigenvalues --    1.80031   1.80408   1.80583   1.81252   1.81767
 Alpha virt. eigenvalues --    1.81962   1.82623   1.83057   1.83364   1.83671
 Alpha virt. eigenvalues --    1.84079   1.84444   1.84563   1.84972   1.85218
 Alpha virt. eigenvalues --    1.85708   1.85870   1.86803   1.87112   1.87474
 Alpha virt. eigenvalues --    1.88074   1.88412   1.88735   1.88853   1.89401
 Alpha virt. eigenvalues --    1.89750   1.89971   1.90672   1.90937   1.91143
 Alpha virt. eigenvalues --    1.91565   1.92030   1.92255   1.92545   1.93254
 Alpha virt. eigenvalues --    1.93958   1.94447   1.94510   1.94662   1.94932
 Alpha virt. eigenvalues --    1.95088   1.95309   1.95643   1.96303   1.96736
 Alpha virt. eigenvalues --    1.97128   1.97229   1.97938   1.98097   1.98272
 Alpha virt. eigenvalues --    1.98711   1.98818   1.99381   1.99660   2.00232
 Alpha virt. eigenvalues --    2.00644   2.00856   2.01127   2.01470   2.02020
 Alpha virt. eigenvalues --    2.02564   2.02717   2.03614   2.03889   2.04185
 Alpha virt. eigenvalues --    2.04806   2.04956   2.05106   2.05411   2.06079
 Alpha virt. eigenvalues --    2.06351   2.07012   2.07195   2.07419   2.07718
 Alpha virt. eigenvalues --    2.07995   2.08376   2.08675   2.08849   2.09586
 Alpha virt. eigenvalues --    2.09929   2.10140   2.10752   2.11634   2.11869
 Alpha virt. eigenvalues --    2.12500   2.12811   2.13845   2.14004   2.14582
 Alpha virt. eigenvalues --    2.14969   2.15154   2.15596   2.15958   2.16259
 Alpha virt. eigenvalues --    2.16767   2.16999   2.17465   2.17757   2.17898
 Alpha virt. eigenvalues --    2.18474   2.18923   2.19300   2.19681   2.20141
 Alpha virt. eigenvalues --    2.20485   2.20679   2.21204   2.22003   2.22096
 Alpha virt. eigenvalues --    2.22760   2.22954   2.23511   2.23647   2.24137
 Alpha virt. eigenvalues --    2.24513   2.25202   2.25807   2.26261   2.26355
 Alpha virt. eigenvalues --    2.27517   2.27803   2.27881   2.28426   2.28706
 Alpha virt. eigenvalues --    2.29041   2.29477   2.30279   2.30722   2.31101
 Alpha virt. eigenvalues --    2.31587   2.32072   2.32658   2.32860   2.33240
 Alpha virt. eigenvalues --    2.33836   2.34089   2.34363   2.34581   2.34954
 Alpha virt. eigenvalues --    2.35519   2.36138   2.36537   2.36827   2.37219
 Alpha virt. eigenvalues --    2.37394   2.37564   2.37753   2.38323   2.38754
 Alpha virt. eigenvalues --    2.39321   2.39439   2.39921   2.40541   2.40859
 Alpha virt. eigenvalues --    2.41726   2.41863   2.42375   2.42627   2.43405
 Alpha virt. eigenvalues --    2.43549   2.43816   2.44442   2.44636   2.45020
 Alpha virt. eigenvalues --    2.45363   2.45528   2.46195   2.46551   2.46881
 Alpha virt. eigenvalues --    2.47452   2.47817   2.48527   2.48952   2.49341
 Alpha virt. eigenvalues --    2.49837   2.50463   2.51324   2.51702   2.51871
 Alpha virt. eigenvalues --    2.52304   2.52745   2.52930   2.53096   2.53641
 Alpha virt. eigenvalues --    2.53766   2.54019   2.54627   2.55274   2.55664
 Alpha virt. eigenvalues --    2.55928   2.56283   2.56306   2.56977   2.57123
 Alpha virt. eigenvalues --    2.57443   2.57624   2.57878   2.58149   2.58921
 Alpha virt. eigenvalues --    2.59140   2.59238   2.59715   2.60340   2.60485
 Alpha virt. eigenvalues --    2.60668   2.60960   2.61492   2.61776   2.62164
 Alpha virt. eigenvalues --    2.62404   2.62762   2.63217   2.63263   2.63938
 Alpha virt. eigenvalues --    2.64408   2.64705   2.64787   2.65160   2.65287
 Alpha virt. eigenvalues --    2.65969   2.66148   2.66257   2.66878   2.67299
 Alpha virt. eigenvalues --    2.67634   2.67925   2.67954   2.68167   2.68581
 Alpha virt. eigenvalues --    2.68881   2.69075   2.69393   2.69911   2.70905
 Alpha virt. eigenvalues --    2.71006   2.71182   2.71526   2.72203   2.72471
 Alpha virt. eigenvalues --    2.72804   2.73387   2.73523   2.73932   2.74120
 Alpha virt. eigenvalues --    2.74787   2.75008   2.75318   2.75580   2.75774
 Alpha virt. eigenvalues --    2.76299   2.76702   2.77071   2.77384   2.77985
 Alpha virt. eigenvalues --    2.78083   2.78566   2.79161   2.79768   2.80000
 Alpha virt. eigenvalues --    2.80333   2.80790   2.81019   2.81622   2.82340
 Alpha virt. eigenvalues --    2.82421   2.82553   2.82786   2.83098   2.83362
 Alpha virt. eigenvalues --    2.83584   2.83763   2.84553   2.84980   2.85280
 Alpha virt. eigenvalues --    2.86123   2.86318   2.86597   2.86857   2.87166
 Alpha virt. eigenvalues --    2.87361   2.87656   2.88103   2.88668   2.88769
 Alpha virt. eigenvalues --    2.89157   2.89675   2.90097   2.90291   2.90455
 Alpha virt. eigenvalues --    2.91006   2.91116   2.91783   2.91934   2.92181
 Alpha virt. eigenvalues --    2.92395   2.92937   2.93279   2.93664   2.93970
 Alpha virt. eigenvalues --    2.94107   2.94438   2.95008   2.95123   2.95599
 Alpha virt. eigenvalues --    2.95857   2.95939   2.96197   2.96495   2.96711
 Alpha virt. eigenvalues --    2.97052   2.97342   2.97878   2.98596   2.99184
 Alpha virt. eigenvalues --    2.99213   2.99333   2.99623   2.99843   3.00319
 Alpha virt. eigenvalues --    3.00497   3.00680   3.00970   3.01211   3.01693
 Alpha virt. eigenvalues --    3.02159   3.02452   3.03519   3.03724   3.03966
 Alpha virt. eigenvalues --    3.04489   3.04806   3.04938   3.05148   3.05398
 Alpha virt. eigenvalues --    3.05583   3.05889   3.06210   3.06532   3.07090
 Alpha virt. eigenvalues --    3.07311   3.07568   3.08053   3.08231   3.08526
 Alpha virt. eigenvalues --    3.09227   3.09367   3.09568   3.09986   3.10099
 Alpha virt. eigenvalues --    3.10400   3.10643   3.10940   3.11329   3.11599
 Alpha virt. eigenvalues --    3.12042   3.12313   3.12600   3.12889   3.13340
 Alpha virt. eigenvalues --    3.13509   3.13743   3.14333   3.14643   3.14723
 Alpha virt. eigenvalues --    3.15075   3.15190   3.15493   3.15921   3.16361
 Alpha virt. eigenvalues --    3.16729   3.17034   3.17200   3.17526   3.17731
 Alpha virt. eigenvalues --    3.18114   3.18338   3.18551   3.18908   3.19276
 Alpha virt. eigenvalues --    3.19474   3.19863   3.19964   3.20368   3.20567
 Alpha virt. eigenvalues --    3.21252   3.21387   3.21534   3.21900   3.22305
 Alpha virt. eigenvalues --    3.22625   3.22860   3.23287   3.23777   3.23984
 Alpha virt. eigenvalues --    3.24446   3.24647   3.24858   3.25155   3.25714
 Alpha virt. eigenvalues --    3.25784   3.25999   3.26351   3.26809   3.27291
 Alpha virt. eigenvalues --    3.27452   3.27594   3.27664   3.28100   3.28443
 Alpha virt. eigenvalues --    3.28809   3.29150   3.29397   3.29501   3.29808
 Alpha virt. eigenvalues --    3.29955   3.30285   3.30628   3.31144   3.31464
 Alpha virt. eigenvalues --    3.31581   3.32248   3.32452   3.32711   3.32923
 Alpha virt. eigenvalues --    3.33176   3.33330   3.33363   3.33744   3.34087
 Alpha virt. eigenvalues --    3.34351   3.34674   3.35064   3.35245   3.35372
 Alpha virt. eigenvalues --    3.35692   3.35919   3.36100   3.36289   3.36828
 Alpha virt. eigenvalues --    3.36905   3.37259   3.37399   3.37512   3.37649
 Alpha virt. eigenvalues --    3.38095   3.38304   3.38337   3.38623   3.38860
 Alpha virt. eigenvalues --    3.39029   3.39296   3.39590   3.39987   3.40216
 Alpha virt. eigenvalues --    3.40303   3.40645   3.41189   3.41579   3.41918
 Alpha virt. eigenvalues --    3.42149   3.42681   3.42934   3.43036   3.43237
 Alpha virt. eigenvalues --    3.43906   3.44010   3.44528   3.45288   3.45556
 Alpha virt. eigenvalues --    3.46083   3.46410   3.46660   3.47165   3.47297
 Alpha virt. eigenvalues --    3.47491   3.47829   3.47978   3.48743   3.49234
 Alpha virt. eigenvalues --    3.49517   3.49647   3.50214   3.50472   3.50810
 Alpha virt. eigenvalues --    3.51456   3.51771   3.52199   3.52335   3.52640
 Alpha virt. eigenvalues --    3.52795   3.53287   3.53477   3.53669   3.53841
 Alpha virt. eigenvalues --    3.54410   3.55242   3.55525   3.55887   3.56479
 Alpha virt. eigenvalues --    3.56830   3.57327   3.57444   3.57894   3.58147
 Alpha virt. eigenvalues --    3.58757   3.59124   3.59363   3.59892   3.60300
 Alpha virt. eigenvalues --    3.60343   3.60591   3.61029   3.61779   3.62068
 Alpha virt. eigenvalues --    3.62546   3.62657   3.62951   3.63454   3.63888
 Alpha virt. eigenvalues --    3.64211   3.64666   3.64962   3.65398   3.65593
 Alpha virt. eigenvalues --    3.66012   3.66556   3.67058   3.67160   3.67858
 Alpha virt. eigenvalues --    3.68219   3.68351   3.68950   3.69296   3.69616
 Alpha virt. eigenvalues --    3.70085   3.70250   3.70454   3.71095   3.71596
 Alpha virt. eigenvalues --    3.71913   3.72194   3.72730   3.73259   3.73408
 Alpha virt. eigenvalues --    3.73667   3.74240   3.74610   3.74865   3.75076
 Alpha virt. eigenvalues --    3.75560   3.76005   3.76189   3.76568   3.77438
 Alpha virt. eigenvalues --    3.77597   3.78321   3.78477   3.78983   3.79490
 Alpha virt. eigenvalues --    3.79746   3.80399   3.80704   3.81648   3.82240
 Alpha virt. eigenvalues --    3.82690   3.83019   3.83162   3.83815   3.84809
 Alpha virt. eigenvalues --    3.85062   3.85186   3.85991   3.86119   3.86236
 Alpha virt. eigenvalues --    3.87136   3.88367   3.88757   3.89242   3.89566
 Alpha virt. eigenvalues --    3.89924   3.91260   3.91444   3.92284   3.92731
 Alpha virt. eigenvalues --    3.93281   3.93563   3.94553   3.95253   3.95698
 Alpha virt. eigenvalues --    3.96085   3.96771   3.96968   3.97563   3.98000
 Alpha virt. eigenvalues --    3.98377   3.98523   3.99129   3.99372   3.99714
 Alpha virt. eigenvalues --    4.01212   4.01376   4.02025   4.02477   4.02915
 Alpha virt. eigenvalues --    4.03344   4.04285   4.04315   4.05173   4.05406
 Alpha virt. eigenvalues --    4.06179   4.07037   4.07541   4.08024   4.08396
 Alpha virt. eigenvalues --    4.09124   4.09969   4.10172   4.10791   4.11075
 Alpha virt. eigenvalues --    4.11812   4.12995   4.13695   4.13772   4.14232
 Alpha virt. eigenvalues --    4.14496   4.15125   4.15608   4.16207   4.16251
 Alpha virt. eigenvalues --    4.17034   4.17318   4.18255   4.18492   4.18832
 Alpha virt. eigenvalues --    4.19573   4.20288   4.20808   4.21546   4.21711
 Alpha virt. eigenvalues --    4.22294   4.22603   4.23213   4.23393   4.24305
 Alpha virt. eigenvalues --    4.24629   4.24983   4.25484   4.26070   4.26234
 Alpha virt. eigenvalues --    4.27043   4.27186   4.27356   4.28315   4.28867
 Alpha virt. eigenvalues --    4.29291   4.29665   4.30068   4.30777   4.31694
 Alpha virt. eigenvalues --    4.32245   4.32450   4.33013   4.33439   4.34231
 Alpha virt. eigenvalues --    4.34426   4.35477   4.35869   4.36358   4.36685
 Alpha virt. eigenvalues --    4.38023   4.38401   4.38909   4.39693   4.39887
 Alpha virt. eigenvalues --    4.41117   4.41843   4.42515   4.42889   4.43122
 Alpha virt. eigenvalues --    4.43859   4.44356   4.44905   4.45362   4.45717
 Alpha virt. eigenvalues --    4.46499   4.46718   4.47257   4.48010   4.48096
 Alpha virt. eigenvalues --    4.49275   4.49878   4.51041   4.52177   4.52782
 Alpha virt. eigenvalues --    4.52905   4.53807   4.54175   4.54459   4.55078
 Alpha virt. eigenvalues --    4.55734   4.56337   4.57344   4.57632   4.58702
 Alpha virt. eigenvalues --    4.58947   4.59570   4.60202   4.61949   4.62645
 Alpha virt. eigenvalues --    4.63408   4.64171   4.65227   4.65897   4.66345
 Alpha virt. eigenvalues --    4.67310   4.67764   4.68175   4.69167   4.69224
 Alpha virt. eigenvalues --    4.70071   4.71447   4.72018   4.72190   4.72987
 Alpha virt. eigenvalues --    4.73767   4.74516   4.75115   4.76237   4.76714
 Alpha virt. eigenvalues --    4.77279   4.78048   4.78220   4.78877   4.79533
 Alpha virt. eigenvalues --    4.80147   4.80555   4.81514   4.81789   4.83440
 Alpha virt. eigenvalues --    4.84015   4.84306   4.84847   4.85888   4.86329
 Alpha virt. eigenvalues --    4.88544   4.88866   4.89414   4.90925   4.91417
 Alpha virt. eigenvalues --    4.92083   4.93098   4.94181   4.95047   4.95953
 Alpha virt. eigenvalues --    4.96631   4.96828   4.98070   4.98784   5.00096
 Alpha virt. eigenvalues --    5.00582   5.00712   5.01975   5.02485   5.04173
 Alpha virt. eigenvalues --    5.05082   5.06569   5.07077   5.07898   5.08371
 Alpha virt. eigenvalues --    5.08638   5.10288   5.10774   5.11285   5.11723
 Alpha virt. eigenvalues --    5.12108   5.12915   5.13884   5.14326   5.16412
 Alpha virt. eigenvalues --    5.16498   5.17986   5.18448   5.19543   5.20071
 Alpha virt. eigenvalues --    5.20296   5.20875   5.21874   5.21973   5.22035
 Alpha virt. eigenvalues --    5.22342   5.22674   5.23195   5.24114   5.24683
 Alpha virt. eigenvalues --    5.25601   5.25831   5.26256   5.26680   5.28765
 Alpha virt. eigenvalues --    5.29374   5.29748   5.31129   5.32822   5.33528
 Alpha virt. eigenvalues --    5.34035   5.36058   5.39148   5.39478   5.39800
 Alpha virt. eigenvalues --    5.41733   5.42133   5.43312   5.43624   5.44221
 Alpha virt. eigenvalues --    5.44876   5.45284   5.47011   5.47792   5.48353
 Alpha virt. eigenvalues --    5.48511   5.50533   5.51299   5.51618   5.53325
 Alpha virt. eigenvalues --    5.54028   5.54624   5.56262   5.56577   5.57902
 Alpha virt. eigenvalues --    5.58642   5.59055   5.60454   5.60625   5.61392
 Alpha virt. eigenvalues --    5.63525   5.64200   5.64437   5.65579   5.66782
 Alpha virt. eigenvalues --    5.68350   5.69124   5.70040   5.70369   5.70553
 Alpha virt. eigenvalues --    5.71438   5.74235   5.74539   5.76787   5.78611
 Alpha virt. eigenvalues --    5.81094   5.82464   5.83264   5.84580   5.86248
 Alpha virt. eigenvalues --    5.87390   5.90088   5.91306   5.91501   5.94293
 Alpha virt. eigenvalues --    5.98715   5.99098   5.99750   6.03335   6.05870
 Alpha virt. eigenvalues --    6.06033   6.07468   6.11705   6.14831   6.16304
 Alpha virt. eigenvalues --    6.17398   6.17992   6.19424   6.20813   6.22196
 Alpha virt. eigenvalues --    6.24721   6.26596   6.26822   6.29119   6.34394
 Alpha virt. eigenvalues --    6.34473   6.40470   6.41470   6.43350   6.43861
 Alpha virt. eigenvalues --    6.45349   6.47472   6.48657   6.49045   6.50932
 Alpha virt. eigenvalues --    6.52545   6.52760   6.52921   6.54720   6.61411
 Alpha virt. eigenvalues --    6.67156   6.67716   6.77868   6.79664   6.81574
 Alpha virt. eigenvalues --    6.85769   6.87496   6.97236   6.97967   7.04716
 Alpha virt. eigenvalues --    7.07378   7.14894   7.16244   7.18108   7.19203
 Alpha virt. eigenvalues --    7.19457   7.20948   7.28206   7.29165  22.36631
 Alpha virt. eigenvalues --   22.37617  22.52274  22.52487  22.53031  22.54428
 Alpha virt. eigenvalues --   22.63240  22.67490  22.70268  22.73153  22.75269
 Alpha virt. eigenvalues --   22.81078  22.82899  22.97693  22.98685  23.01773
 Alpha virt. eigenvalues --   23.03017  23.08335  23.09372  23.11774  23.12465
 Alpha virt. eigenvalues --   23.19381  23.20639  23.38740  23.40792  23.45108
 Alpha virt. eigenvalues --   23.46877  23.49067  23.56244  23.58971  23.61192
 Alpha virt. eigenvalues --   23.69469  23.73708  23.83425  23.96550  23.98732
 Alpha virt. eigenvalues --   24.09134  32.47346  32.74485  33.00083  33.04416
 Alpha virt. eigenvalues --   33.12969  33.18636  43.95160  43.97657  43.99690
 Alpha virt. eigenvalues --   44.00989  44.21768
          Condensed to atoms (all electrons):
 Mulliken charges:
               1
     1  C   -0.473821
     2  C   -0.489790
     3  C   -0.425283
     4  C   -0.528677
     5  C    0.331585
     6  C    0.026296
     7  C   -0.094530
     8  C    0.250649
     9  C   -0.407434
    10  C   -0.433696
    11  C   -0.179858
    12  C    0.293121
    13  O   -0.348044
    14  O   -0.304942
    15  C    0.310111
    16  C   -0.121868
    17  C   -0.017859
    18  C    0.254606
    19  C   -0.348822
    20  C   -0.110899
    21  C   -0.347502
    22  C    0.229250
    23  C   -0.130525
    24  C    0.018046
    25  C    0.292942
    26  C   -0.410025
    27  C   -0.131302
    28  C   -0.333036
    29  C    0.326365
    30  C   -0.130200
    31  C    0.066914
    32  C    0.216974
    33  C   -0.404496
    34  C   -0.321649
    35  C   -0.212985
    36  C    0.256674
    37  O   -0.331349
    38  O   -0.337788
    39  N   -0.030995
    40  N   -0.226406
    41  N   -0.030610
    42  N   -0.061308
    43  Fe  -0.191544
    44  N   -0.159237
    45  C    0.018777
    46  N    0.012066
    47  C   -0.121273
    48  C   -0.082451
    49  H    0.223731
    50  O   -0.445998
    51  H    0.154473
    52  H    0.154178
    53  H    0.179810
    54  H    0.143183
    55  H    0.126268
    56  H    0.118437
    57  H    0.143417
    58  H    0.132332
    59  H    0.116041
    60  H    0.100214
    61  H    0.148597
    62  H    0.144553
    63  H    0.131889
    64  H    0.134891
    65  H    0.142080
    66  H    0.105601
    67  H    0.072781
    68  H    0.136128
    69  H    0.137523
    70  H    0.127495
    71  H    0.099212
    72  H    0.134205
    73  H    0.124350
    74  H    0.130899
    75  H    0.323061
    76  H    0.305779
    77  H    0.136848
    78  H    0.126838
    79  H    0.108147
    80  H    0.124289
    81  H    0.350742
    82  H    0.140728
    83  H    0.131785
    84  H    0.144432
    85  H    0.100908
    86  H    0.109306
    87  H    0.356675
 Sum of Mulliken charges =  -0.00000
 Mulliken charges with hydrogens summed into heavy atoms:
               1
     1  C   -0.372913
     2  C   -0.380484
     3  C   -0.325069
     4  C   -0.455896
     5  C    0.331585
     6  C    0.026296
     7  C   -0.094530
     8  C    0.250649
     9  C    0.009511
    10  C   -0.170010
    11  C    0.052578
    12  C    0.293121
    13  O   -0.348044
    14  O    0.045800
    15  C    0.310111
    16  C   -0.121868
    17  C   -0.017859
    18  C    0.254606
    19  C    0.039065
    20  C    0.005143
    21  C   -0.071753
    22  C    0.229250
    23  C   -0.130525
    24  C    0.018046
    25  C    0.292942
    26  C    0.015014
    27  C   -0.025701
    28  C   -0.056065
    29  C    0.326365
    30  C   -0.130200
    31  C    0.066914
    32  C    0.216974
    33  C   -0.003350
    34  C   -0.088232
    35  C    0.042263
    36  C    0.256674
    37  O   -0.331349
    38  O    0.018887
    39  N   -0.030995
    40  N   -0.226406
    41  N   -0.030610
    42  N   -0.061308
    43  Fe  -0.191544
    44  N    0.064494
    45  C    0.198587
    46  N    0.012066
    47  C    0.032905
    48  C    0.072022
    50  O    0.182841
 Electronic spatial extent (au):  <R**2>=          31280.2733
 Charge=             -0.0000 electrons
 Dipole moment (field-independent basis, Debye):
    X=              5.3076    Y=              3.4515    Z=              3.2552  Tot=              7.1190
 Quadrupole moment (field-independent basis, Debye-Ang):
   XX=           -325.9537   YY=           -277.8600   ZZ=           -262.5786
   XY=            -43.2999   XZ=             13.7243   YZ=              5.7373
 Traceless Quadrupole moment (field-independent basis, Debye-Ang):
   XX=            -37.1562   YY=             10.9374   ZZ=             26.2188
   XY=            -43.2999   XZ=             13.7243   YZ=              5.7373
 Octapole moment (field-independent basis, Debye-Ang**2):
  XXX=            315.6934  YYY=            111.4197  ZZZ=             75.2148  XYY=            -29.4779
  XXY=            287.4106  XXZ=             30.7250  XZZ=              3.3723  YZZ=            -28.6945
  YYZ=             25.6680  XYZ=            -69.1590
 Hexadecapole moment (field-independent basis, Debye-Ang**3):
 XXXX=         -28045.1796 YYYY=         -14045.0454 ZZZZ=          -2169.2552 XXXY=          -1958.1379
 XXXZ=           -122.9970 YYYX=          -1364.9181 YYYZ=             29.8825 ZZZX=            546.2755
 ZZZY=             62.4217 XXYY=          -6689.7418 XXZZ=          -4168.5903 YYZZ=          -2813.9613
 XXYZ=            433.6910 YYXZ=            -69.6988 ZZXY=             42.7854
 N-N= 7.372631972432D+03 E-N=-2.273740854485D+04  KE= 3.390318213008D+03
  Exact polarizability: 864.430 -21.379 801.809 -33.807 -22.274 327.329
 Approx polarizability:1485.030 -50.4091503.394 -82.025 -46.654 540.892

 ----------------------------------------------------------------------

 Electric dipole moment (input orientation):
 (Debye = 10**-18 statcoulomb cm , SI units = C m)
                  (au)            (Debye)         (10**-30 SI)
   Tot        0.280082D+01      0.711899D+01      0.237464D+02
   x         -0.677993D+00     -0.172329D+01     -0.574827D+01
   y          0.102582D+01      0.260738D+01      0.869729D+01
   z         -0.251647D+01     -0.639623D+01     -0.213355D+02

 Dipole polarizability, Alpha (input orientation).
 (esu units = cm**3 , SI units = C**2 m**2 J**-1)
 Alpha(0;0):
               (au)            (10**-24 esu)      (10**-40 SI)
   iso        0.664523D+03      0.984721D+02      0.109565D+03
   aniso      0.514833D+03      0.762904D+02      0.848845D+02
   xx         0.504634D+03      0.747791D+02      0.832029D+02
   yx        -0.145288D+03     -0.215294D+02     -0.239547D+02
   yy         0.811990D+03      0.120325D+03      0.133879D+03
   zx        -0.187662D+03     -0.278086D+02     -0.309413D+02
   zy        -0.910656D+02     -0.134945D+02     -0.150147D+02
   zz         0.676943D+03      0.100313D+03      0.111613D+03

 First dipole hyperpolarizability, Beta (input orientation).
 ||, _|_  parallel and perpendicular components, (z) with respect to z axis,
 vector components x,y,z.  Values do not include the 1/n! factor of 1/2.
 (esu units = statvolt**-1 cm**4 , SI units = C**3 m**3 J**-2)
 Beta(0;0,0):
               (au)            (10**-30 esu)      (10**-50 SI)
   || (z)    -0.368686D+03     -0.318516D+01     -0.118214D+01
   _|_(z)    -0.122895D+03     -0.106172D+01     -0.394047D+00
   x         -0.170964D+04     -0.147700D+02     -0.548174D+01
   y          0.655266D+04      0.566098D+02      0.210102D+02
   z         -0.184343D+04     -0.159258D+02     -0.591070D+01
   ||         0.140369D+04      0.121268D+02      0.450073D+01
   xxx       -0.197185D+03     -0.170352D+01     -0.632246D+00
   xxy        0.773499D+03      0.668243D+01      0.248012D+01
   yxy       -0.688673D+03     -0.594960D+01     -0.220813D+01
   yyy        0.107911D+04      0.932267D+01      0.346002D+01
   xxz       -0.302615D+03     -0.261435D+01     -0.970292D+00
   yxz       -0.463691D+03     -0.400593D+01     -0.148676D+01
   yyz        0.178563D+03      0.154265D+01      0.572538D+00
   zxz        0.315976D+03      0.272979D+01      0.101313D+01
   zyz        0.331609D+03      0.286484D+01      0.106326D+01
   zzz       -0.490425D+03     -0.423689D+01     -0.157248D+01

 ----------------------------------------------------------------------

 Dipole orientation:
     6        -56.98413155       -172.37544353       -151.90054309
     6        -61.05453760       -180.30705002       -150.61613514
     6        -56.08149938       -181.53083901       -143.24178921
     6        -51.67628779       -173.78016933       -144.83709767
     6        -58.57793895       -174.43088240       -152.24854896
     6        -60.14367657       -174.72703889       -154.32243830
     6        -61.40349269       -177.04740419       -153.94574275
     6        -60.40776647       -178.00169908       -151.71123115
     6        -63.49585269       -178.21693905       -155.57849495
     6        -60.34161797       -172.83580520       -156.51023032
     6        -58.67376287       -173.30757591       -158.75064834
     6        -58.94678798       -171.30752048       -160.83848142
     8        -60.91192118       -171.17013813       -162.08129707
     8        -57.20268754       -169.84116932       -161.31301397
     6        -60.17997460       -181.31546413       -148.33322583
     6        -61.10869719       -183.53645047       -147.25126013
     6        -59.74897465       -183.81288837       -145.02516763
     6        -58.01481547       -181.81910396       -145.00111649
     6        -63.34988620       -185.01363175       -148.30416684
     6        -59.93024811       -185.56689072       -143.03932632
     6        -61.73056253       -187.57565434       -142.70081877
     6        -54.29217281       -179.58983641       -143.04914275
     6        -52.32609188       -179.55117814       -141.29784271
     6        -50.98640286       -177.32904640       -141.89788410
     6        -52.30679635       -176.15783596       -143.83468664
     6        -51.72349973       -181.64681048       -139.33976697
     6        -48.81323950       -176.21309709       -140.86027419
     6        -47.55425034       -176.80497303       -138.53945026
     6        -52.78985390       -172.52554778       -146.83628369
     6        -52.22776379       -170.09573994       -147.59963102
     6        -53.77823949       -169.72431345       -149.70998374
     6        -55.17389435       -171.92082036       -150.01811760
     6        -50.52920491       -168.15981662       -146.27834541
     6        -54.01701111       -167.31568599       -151.27111078
     6        -52.30260178       -167.32066496       -153.57133228
     6        -52.62353887       -165.10981113       -155.34519194
     8        -52.09498190       -165.43043182       -157.57793914
     8        -53.37483049       -163.06514095       -154.53974946
     7        -58.73907055       -176.41124206       -150.68485831
     7        -58.44133075       -180.21148005       -146.89392949
     7        -54.26419500       -177.55212136       -144.57930046
     7        -54.60111370       -173.56164814       -148.24371558
    26        -56.75393366       -176.71920084       -147.40083055
     7        -62.08769480       -174.73620161       -142.54040927
     6        -61.32639597       -175.65729480       -144.68572626
     7        -59.03839965       -174.82346388       -145.06997600
     6        -58.37176468       -173.39692700       -143.19151696
     6        -60.36506644       -173.31718872       -141.50704344
     1        -63.66513103       -175.17885446       -141.72883452
     8        -54.65343895       -178.67962903       -149.81560429
     1        -60.46884736       -172.31686653       -139.75287778
     1        -56.59654348       -172.45145598       -142.98370369
     1        -62.38034871       -176.87368445       -145.90969193
     1        -62.72806501       -186.83885949       -148.91276702
     1        -64.75383932       -185.22530299       -146.86450611
     1        -64.13944259       -184.01264209       -149.87360385
     1        -61.09102833       -189.44353563       -142.26432405
     1        -63.70910577       -187.20182366       -142.88556019
     1        -58.54102235       -185.38343590       -141.58161981
     1        -55.94320858       -182.98902934       -141.84784920
     1        -49.80978392       -181.45580067       -138.71549206
     1        -52.96959454       -181.46910352       -137.75730683
     1        -51.97536472       -183.46140029       -140.19553562
     1        -45.59389263       -176.36481636       -138.31191587
     1        -48.57379416       -177.68743842       -137.03269968
     1        -47.98867744       -174.72209188       -141.94908684
     1        -50.13984692       -172.82141773       -143.93784414
     1        -48.96991987       -167.69961406       -147.48057495
     1        -51.59384526       -166.48639363       -145.88501528
     1        -49.83732976       -168.94111254       -144.54646851
     1        -53.54192866       -165.73276908       -150.10612888
     1        -55.93370325       -167.12332279       -151.88576495
     1        -50.38503034       -167.34344273       -152.93030726
     1        -52.64546547       -169.02041411       -154.61143298
     1        -53.05515836       -179.53391710       -149.89797193
     1        -55.88141623       -179.76755341       -149.04127513
     1        -62.25903249       -172.82334132       -157.15200781
     1        -59.90871815       -170.99797090       -155.78671464
     1        -56.74967527       -173.33514556       -158.12964997
     1        -59.13028531       -175.11818124       -159.52641100
     1        -55.55544544       -170.48919251       -161.71019501
     1        -62.76645413       -179.83049859       -156.55466885
     1        -65.03569436       -178.78334777       -154.39672469
     1        -64.14415046       -176.85234114       -156.92240517
     1        -57.16491286       -170.91095279       -153.28296746
     1        -62.37697865       -181.44113812       -151.64253952
     1        -52.22204981       -161.67321776       -154.38246036

 Electric dipole moment (dipole orientation):
 (Debye = 10**-18 statcoulomb cm , SI units = C m)
                  (au)            (Debye)         (10**-30 SI)
   Tot        0.280082D+01      0.711899D+01      0.237464D+02
   x          0.000000D+00      0.000000D+00      0.000000D+00
   y          0.000000D+00      0.000000D+00      0.000000D+00
   z          0.280082D+01      0.711899D+01      0.237464D+02

 Dipole polarizability, Alpha (dipole orientation).
 (esu units = cm**3 , SI units = C**2 m**2 J**-1)
 Alpha(0;0):
               (au)            (10**-24 esu)      (10**-40 SI)
   iso        0.664523D+03      0.984721D+02      0.109565D+03
   aniso      0.514833D+03      0.762904D+02      0.848845D+02
   xx         0.592359D+03      0.877786D+02      0.976669D+02
   yx         0.178669D+03      0.264761D+02      0.294586D+02
   yy         0.712180D+03      0.105534D+03      0.117423D+03
   zx         0.157109D+03      0.232812D+02      0.259038D+02
   zy        -0.166449D+03     -0.246653D+02     -0.274438D+02
   zz         0.689029D+03      0.102104D+03      0.113605D+03

 First dipole hyperpolarizability, Beta (dipole orientation).
 ||, _|_  parallel and perpendicular components, (z) with respect to z axis,
 vector components x,y,z.  Values do not include the 1/n! factor of 1/2.
 (esu units = statvolt**-1 cm**4 , SI units = C**3 m**3 J**-2)
 Beta(0;0,0):
               (au)            (10**-30 esu)      (10**-50 SI)
   || (z)     0.894017D+03      0.772361D+01      0.286654D+01
   _|_(z)     0.298006D+03      0.257454D+01      0.955514D+00
   x         -0.904626D+03     -0.781526D+01     -0.290056D+01
   y         -0.533464D+04     -0.460871D+02     -0.171048D+02
   z          0.447009D+04      0.386181D+02      0.143327D+02
   ||         0.140369D+04      0.121268D+02      0.450073D+01
   xxx        0.218154D+03      0.188468D+01      0.699480D+00
   xxy       -0.651541D+03     -0.562881D+01     -0.208908D+01
   yxy       -0.807592D+03     -0.697697D+01     -0.258943D+01
   yyy       -0.101787D+04     -0.879357D+01     -0.326365D+01
   xxz        0.774777D+03      0.669347D+01      0.248421D+01
   yxz        0.124719D+03      0.107748D+01      0.399896D+00
   yyz        0.316332D+03      0.273286D+01      0.101428D+01
   zxz        0.287896D+03      0.248720D+01      0.923100D+00
   zyz       -0.108806D+03     -0.940002D+00     -0.348872D+00
   zzz        0.398920D+03      0.344636D+01      0.127908D+01

 ----------------------------------------------------------------------
 1\1\GINC-NODE592\SP\RPBE1PBE\def2TZVP\C37H38Fe1N6O5\ZHARTOVSKA\15-Jan-
 2023\0\\# polar def2tzvp empiricaldispersion=gd3bj int=grid=ultrafine 
 pbe1pbe\\1ccg_II_S\\0,1\C,0,-5.506,53.923,112.93\C,0,-7.562,57.972,114
 .377998\C,0,-5.926,60.125999,110.472\C,0,-3.654,56.113998,109.164001\C
 ,0,-6.228,54.827,113.697998\C,0,-6.758,54.532001,114.942001\C,0,-7.395
 ,55.715,115.374001\C,0,-7.147,56.641998,114.369003\C,0,-8.23,55.922001
 ,116.644997\C,0,-6.626,53.173,115.640999\C,0,-5.472,53.012001,116.584\
 C,0,-5.394,51.617001,117.223999\O,0,-6.246,51.259998,118.040001\O,0,-4
 .475,50.847,116.942001\C,0,-7.381,58.931999,113.375999\C,0,-7.941,60.2
 10999,113.411003\C,0,-7.522,60.812,112.232002\C,0,-6.685,59.879002,111
 .612\C,0,-8.919,60.678001,114.485001\C,0,-7.826,62.055,111.651001\C,0,
 -8.743,63.063999,112.110001\C,0,-5.081,59.252998,109.775002\C,0,-4.298
 ,59.622002,108.682999\C,0,-3.589,58.445999,108.365997\C,0,-4.047,57.46
 2002,109.228996\C,0,-4.188,61.047001,108.081001\C,0,-2.635,58.152,107.
 377998\C,0,-2.272,58.924,106.227997\C,0,-4.,55.082001,110.014\C,0,-3.6
 74,53.752998,109.834\C,0,-4.208,53.123001,110.963997\C,0,-4.83,54.1090
 01,111.714996\C,0,-3.02,53.098999,108.612999\C,0,-4.19,51.630001,111.2
 69997\C,0,-3.016,51.229,112.144997\C,0,-3.008,49.790001,112.600998\O,0
 ,-2.443,49.528,113.656998\O,0,-3.547,48.922001,111.917999\N,0,-6.462,5
 6.099998,113.359001\N,0,-6.701,58.710999,112.254997\N,0,-4.921,57.9550
 02,110.103996\N,0,-4.723,55.273998,111.115997\Fe,0,-5.857,56.937,111.6
 02997\N,0,-9.264,56.771999,109.591003\C,0,-8.576,56.827999,110.692001\
 N,0,-7.374,56.400002,110.419998\C,0,-7.308,56.078999,109.165001\C,0,-8
 .548,56.317001,108.603996\H,0,-10.166,57.108002,109.492996\O,0,-4.422,
 57.485001,112.862\H,0,-8.85064843,56.16247539,107.58938979\H,0,-6.4475
 7431,55.69817754,108.65554772\H,0,-8.92966584,57.16293345,111.6447021\
 H,0,-8.47703616,61.47303368,115.04846439\H,0,-9.81819471,61.02643021,1
 14.02137835\H,0,-9.14761543,59.86203563,115.13832749\H,0,-8.42477212,6
 4.08300091,112.18256908\H,0,-9.74325724,62.79545327,112.37882928\H,0,-
 7.30480636,62.28163653,110.74441781\H,0,-5.99760269,61.11670074,110.07
 415189\H,0,-3.29125105,61.12135216,107.50202499\H,0,-5.03415292,61.235
 51722,107.45379539\H,0,-4.16270198,61.7673059,108.87183655\H,0,-1.3066
 6668,58.80008259,105.78338924\H,0,-2.9660696,59.62481928,105.8132444\H
 ,0,-2.10950113,57.22809341,107.5010734\H,0,-3.00493131,55.8547559,108.
 35381376\H,0,-2.07770052,52.67820197,108.89566761\H,0,-3.65773385,52.3
 2595592,108.23803241\H,0,-2.86771719,53.83599136,107.8523728\H,0,-4.13
 470648,51.0890761,110.34845325\H,0,-5.09898196,51.36890342,111.7704766
 2\H,0,-2.11413607,51.41183062,111.59899845\H,0,-3.01659566,51.85485271
 ,113.01287259\H,0,-3.57066867,57.92866188,112.862\H,0,-5.12406459,58.1
 3975691,112.862\H,0,-7.52743218,52.99509964,116.1893342\H,0,-6.5420885
 8,52.42010505,114.88534824\H,0,-4.56411051,53.19346777,116.04761721\H,
 0,-5.56200633,53.74079509,117.36224034\H,0,-3.56332963,51.1294171,117.
 04543081\H,0,-7.6910114,56.54435544,117.32841945\H,0,-9.15708263,56.39
 154393,116.39014951\H,0,-8.42404701,54.97441953,117.10252855\H,0,-5.45
 781913,52.93038165,113.32659478\H,0,-8.08069943,58.29811494,115.255209
 46\H,0,-3.01035017,48.29644599,111.42577153\\Version=ES64L-G16RevA.03\
 State=1-A\HF=-3399.3141417\RMSD=3.361e-09\Dipole=-0.6779935,1.0258225,
 -2.5164722\Polar=504.6342225,-145.2877032,811.9899848,-187.6619701,-91
 .065559,676.9434581\HyperPolar=-197.1847299,773.49915,-688.6727946,107
 9.1105092,-302.6145585,-463.6914412,178.56318,315.9760316,331.6087038,
 -490.4252766\Quadrupole=20.2415455,-9.8626687,-10.3788768,-14.6354213,
 10.0249442,33.7820312\PG=C01 [X(C37H38Fe1N6O5)]\\@


 WISDOM IS KNOWING WHAT TO DO,
 SKILL IS KNOWING HOW TO DO IT,
 AND VIRTUE IS NOT DOING IT.
 Job cpu time:       3 days 16 hours 17 minutes 49.6 seconds.
 Elapsed time:       0 days 22 hours  8 minutes  1.2 seconds.
 File lengths (MBytes):  RWF=   1594 Int=      0 D2E=      0 Chk=    205 Scr=      1
 Normal termination of Gaussian 16 at Sun Jan 15 17:36:11 2023.
