 Entering Gaussian System, Link 0=g16
 Input=/net/homes/chemie/zhartovska/work/BioModel/Konrad/1ccg/1ccg05/1ccg05.com
 Output=/net/homes/chemie/zhartovska/work/BioModel/Konrad/1ccg/1ccg05/1ccg05.log
 Initial command:
 /afs/math/software/gaussian/g16.A03/g16/l1.exe "/scratch/zhartovska_gaussian.egZJLix/Gau-29545.inp" -scrdir="/scratch/zhartovska_gaussian.egZJLix/"
 Entering Link 1 = /afs/math/software/gaussian/g16.A03/g16/l1.exe PID=     29546.
  
 Copyright (c) 1988,1990,1992,1993,1995,1998,2003,2009,2016,
            Gaussian, Inc.  All Rights Reserved.
  
 This is part of the Gaussian(R) 16 program.  It is based on
 the Gaussian(R) 09 system (copyright 2009, Gaussian, Inc.),
 the Gaussian(R) 03 system (copyright 2003, Gaussian, Inc.),
 the Gaussian(R) 98 system (copyright 1998, Gaussian, Inc.),
 the Gaussian(R) 94 system (copyright 1995, Gaussian, Inc.),
 the Gaussian 92(TM) system (copyright 1992, Gaussian, Inc.),
 the Gaussian 90(TM) system (copyright 1990, Gaussian, Inc.),
 the Gaussian 88(TM) system (copyright 1988, Gaussian, Inc.),
 the Gaussian 86(TM) system (copyright 1986, Carnegie Mellon
 University), and the Gaussian 82(TM) system (copyright 1983,
 Carnegie Mellon University). Gaussian is a federally registered
 trademark of Gaussian, Inc.
  
 This software contains proprietary and confidential information,
 including trade secrets, belonging to Gaussian, Inc.
  
 This software is provided under written license and may be
 used, copied, transmitted, or stored only in accord with that
 written license.
  
 The following legend is applicable only to US Government
 contracts under FAR:
  
                    RESTRICTED RIGHTS LEGEND
  
 Use, reproduction and disclosure by the US Government is
 subject to restrictions as set forth in subparagraphs (a)
 and (c) of the Commercial Computer Software - Restricted
 Rights clause in FAR 52.227-19.
  
 Gaussian, Inc.
 340 Quinnipiac St., Bldg. 40, Wallingford CT 06492
  
  
 ---------------------------------------------------------------
 Warning -- This program may not be used in any manner that
 competes with the business of Gaussian, Inc. or will provide
 assistance to any competitor of Gaussian, Inc.  The licensee
 of this program is prohibited from giving any competitor of
 Gaussian, Inc. access to this program.  By using this program,
 the user acknowledges that Gaussian, Inc. is engaged in the
 business of creating and licensing software in the field of
 computational chemistry and represents and warrants to the
 licensee that it is not a competitor of Gaussian, Inc. and that
 it will not use this program in any manner prohibited above.
 ---------------------------------------------------------------
  

 Cite this work as:
 Gaussian 16, Revision A.03,
 M. J. Frisch, G. W. Trucks, H. B. Schlegel, G. E. Scuseria, 
 M. A. Robb, J. R. Cheeseman, G. Scalmani, V. Barone, 
 G. A. Petersson, H. Nakatsuji, X. Li, M. Caricato, A. V. Marenich, 
 J. Bloino, B. G. Janesko, R. Gomperts, B. Mennucci, H. P. Hratchian, 
 J. V. Ortiz, A. F. Izmaylov, J. L. Sonnenberg, D. Williams-Young, 
 F. Ding, F. Lipparini, F. Egidi, J. Goings, B. Peng, A. Petrone, 
 T. Henderson, D. Ranasinghe, V. G. Zakrzewski, J. Gao, N. Rega, 
 G. Zheng, W. Liang, M. Hada, M. Ehara, K. Toyota, R. Fukuda, 
 J. Hasegawa, M. Ishida, T. Nakajima, Y. Honda, O. Kitao, H. Nakai, 
 T. Vreven, K. Throssell, J. A. Montgomery, Jr., J. E. Peralta, 
 F. Ogliaro, M. J. Bearpark, J. J. Heyd, E. N. Brothers, K. N. Kudin, 
 V. N. Staroverov, T. A. Keith, R. Kobayashi, J. Normand, 
 K. Raghavachari, A. P. Rendell, J. C. Burant, S. S. Iyengar, 
 J. Tomasi, M. Cossi, J. M. Millam, M. Klene, C. Adamo, R. Cammi, 
 J. W. Ochterski, R. L. Martin, K. Morokuma, O. Farkas, 
 J. B. Foresman, and D. J. Fox, Gaussian, Inc., Wallingford CT, 2016.
 
 ******************************************
 Gaussian 16:  ES64L-G16RevA.03 25-Dec-2016
                19-Jan-2023 
 ******************************************
 %nprocs=12
 Will use up to   12 processors via shared memory.
 %mem=16GB
 %oldchk=1ccg_II_S.chk
 %chk=1ccg_II_Q.chk
 Copying data from "1ccg_II_S.chk" to current chk file "1ccg_II_Q.chk"
 IOpt=  2 FromEx=T IUOpen= 4 IOptOp= 5 NList=   0 IFRang= 0 IUIn= 4 IUOut= 2.
 ----------------------------------------------------------------------
 # PBE1PBE/def2TZVP empiricaldispersion=GD3BJ int=(grid=ultrafine) geom
 =check pop=nbo
 ----------------------------------------------------------------------
 1/29=2,38=1,172=1/1;
 2/12=2,40=1/2;
 3/5=44,7=101,11=2,14=-4,25=1,30=1,74=-13,75=-5,124=41/1,2,3;
 4//1;
 5/5=2,38=5/2;
 6/7=2,8=2,9=2,10=2,28=1,40=1/1,7;
 99/5=1,9=1/99;
 ---------
 1ccg_II_Q
 ---------
 Structure from the checkpoint file:  "1ccg_II_Q.chk"
 Charge =  0 Multiplicity = 5
 Z-Matrix found in chk file.
 C,0,-5.506,53.923,112.93
 C,0,-7.562,57.972,114.377998
 C,0,-5.926,60.125999,110.472
 C,0,-3.654,56.113998,109.164001
 C,0,-6.228,54.827,113.697998
 C,0,-6.758,54.532001,114.942001
 C,0,-7.395,55.715,115.374001
 C,0,-7.147,56.641998,114.369003
 C,0,-8.23,55.922001,116.644997
 C,0,-6.626,53.173,115.640999
 C,0,-5.472,53.012001,116.584
 C,0,-5.394,51.617001,117.223999
 O,0,-6.246,51.259998,118.040001
 O,0,-4.475,50.847,116.942001
 C,0,-7.381,58.931999,113.375999
 C,0,-7.941,60.210999,113.411003
 C,0,-7.522,60.812,112.232002
 C,0,-6.685,59.879002,111.612
 C,0,-8.919,60.678001,114.485001
 C,0,-7.826,62.055,111.651001
 C,0,-8.743,63.063999,112.110001
 C,0,-5.081,59.252998,109.775002
 C,0,-4.298,59.622002,108.682999
 C,0,-3.589,58.445999,108.365997
 C,0,-4.047,57.462002,109.228996
 C,0,-4.188,61.047001,108.081001
 C,0,-2.635,58.152,107.377998
 C,0,-2.272,58.924,106.227997
 C,0,-4.,55.082001,110.014
 C,0,-3.674,53.752998,109.834
 C,0,-4.208,53.123001,110.963997
 C,0,-4.83,54.109001,111.714996
 C,0,-3.02,53.098999,108.612999
 C,0,-4.19,51.630001,111.269997
 C,0,-3.016,51.229,112.144997
 C,0,-3.008,49.790001,112.600998
 O,0,-2.443,49.528,113.656998
 O,0,-3.547,48.922001,111.917999
 N,0,-6.462,56.099998,113.359001
 N,0,-6.701,58.710999,112.254997
 N,0,-4.921,57.955002,110.103996
 N,0,-4.723,55.273998,111.115997
 Fe,0,-5.857,56.937,111.602997
 N,0,-9.264,56.771999,109.591003
 C,0,-8.576,56.827999,110.692001
 N,0,-7.374,56.400002,110.419998
 C,0,-7.308,56.078999,109.165001
 C,0,-8.548,56.317001,108.603996
 H,0,-10.166,57.108002,109.492996
 O,0,-4.422,57.485001,112.862
 H,0,-8.85064843,56.16247539,107.58938979
 H,0,-6.44757431,55.69817754,108.65554772
 H,0,-8.92966584,57.16293345,111.6447021
 H,0,-8.47703616,61.47303368,115.04846439
 H,0,-9.81819471,61.02643021,114.02137835
 H,0,-9.14761543,59.86203563,115.13832749
 H,0,-8.42477212,64.08300091,112.18256908
 H,0,-9.74325724,62.79545327,112.37882928
 H,0,-7.30480636,62.28163653,110.74441781
 H,0,-5.99760269,61.11670074,110.07415189
 H,0,-3.29125105,61.12135216,107.50202499
 H,0,-5.03415292,61.23551722,107.45379539
 H,0,-4.16270198,61.7673059,108.87183655
 H,0,-1.30666668,58.80008259,105.78338924
 H,0,-2.9660696,59.62481928,105.8132444
 H,0,-2.10950113,57.22809341,107.5010734
 H,0,-3.00493131,55.8547559,108.35381376
 H,0,-2.07770052,52.67820197,108.89566761
 H,0,-3.65773385,52.32595592,108.23803241
 H,0,-2.86771719,53.83599136,107.8523728
 H,0,-4.13470648,51.0890761,110.34845325
 H,0,-5.09898196,51.36890342,111.77047662
 H,0,-2.11413607,51.41183062,111.59899845
 H,0,-3.01659566,51.85485271,113.01287259
 H,0,-3.57066867,57.92866188,112.862
 H,0,-5.12406459,58.13975691,112.862
 H,0,-7.52743218,52.99509964,116.1893342
 H,0,-6.54208858,52.42010505,114.88534824
 H,0,-4.56411051,53.19346777,116.04761721
 H,0,-5.56200633,53.74079509,117.36224034
 H,0,-3.56332963,51.1294171,117.04543081
 H,0,-7.6910114,56.54435544,117.32841945
 H,0,-9.15708263,56.39154393,116.39014951
 H,0,-8.42404701,54.97441953,117.10252855
 H,0,-5.45781913,52.93038165,113.32659478
 H,0,-8.08069943,58.29811494,115.25520946
 H,0,-3.01035017,48.29644599,111.42577153
 Recover connectivity data from disk.
 Stoichiometry    C37H38FeN6O5(5)
 Framework group  C1[X(C37H38FeN6O5)]
 Deg. of freedom   255
 Full point group                 C1      NOp   1
 Largest Abelian subgroup         C1      NOp   1
 Largest concise Abelian subgroup C1      NOp   1
                         Standard orientation:                         
 ---------------------------------------------------------------------
 Center     Atomic      Atomic             Coordinates (Angstroms)
 Number     Number       Type             X           Y           Z
 ---------------------------------------------------------------------
      1          6           0       -2.347125   -0.118396    0.266940
      2          6           0        1.032194   -3.442471   -0.232027
      3          6           0        4.275182    0.005496   -0.641394
      4          6           0        0.830362    3.328305   -0.394087
      5          6           0       -1.729458   -1.358472    0.171965
      6          6           0       -2.412739   -2.562007    0.162091
      7          6           0       -1.422406   -3.560337    0.041847
      8          6           0       -0.224284   -2.864462   -0.063560
      9          6           0       -1.613800   -5.082680    0.078513
     10          6           0       -3.937964   -2.694353    0.257386
     11          6           0       -4.688401   -2.763664   -1.038349
     12          6           0       -6.211037   -2.869786   -0.859397
     13          8           0       -6.711277   -3.895741   -0.394219
     14          8           0       -6.948730   -1.940814   -1.190766
     15          6           0        2.270839   -2.794451   -0.296754
     16          6           0        3.497948   -3.460056   -0.339653
     17          6           0        4.446935   -2.447990   -0.383850
     18          6           0        3.720421   -1.254340   -0.437084
     19          6           0        3.646563   -4.971920   -0.197434
     20          6           0        5.851584   -2.474407   -0.347923
     21          6           0        6.727707   -3.604065   -0.186895
     22          6           0        3.632690    1.249217   -0.689602
     23          6           0        4.271535    2.452891   -0.980752
     24          6           0        3.226112    3.397974   -0.972701
     25          6           0        2.075418    2.713403   -0.612078
     26          6           0        5.770182    2.624982   -1.340702
     27          6           0        3.199991    4.783928   -1.198846
     28          6           0        4.299397    5.698136   -1.274909
     29          6           0       -0.378363    2.728224   -0.100626
     30          6           0       -1.546122    3.392460    0.215689
     31          6           0       -2.479160    2.363206    0.386050
     32          6           0       -1.799967    1.170766    0.186393
     33          6           0       -1.739767    4.890045    0.472621
     34          6           0       -3.938533    2.514034    0.798953
     35          6           0       -4.877845    2.571364   -0.392311
     36          6           0       -6.349898    2.583826   -0.058214
     37          8           0       -7.128233    2.125592   -0.887203
     38          8           0       -6.737399    3.050903    1.010484
     39          7           0       -0.412049   -1.545883    0.032290
     40          7           0        2.415914   -1.473068   -0.268700
     41          7           0        2.310920    1.410121   -0.475905
     42          7           0       -0.533349    1.405621   -0.074350
     43         26           0        0.953183   -0.034102    0.003887
     44          7           0        2.276907   -0.277308    3.728347
     45          6           0        1.739951   -0.785012    2.659426
     46          7           0        1.249957    0.204439    1.964542
     47          6           0        1.475700    1.318734    2.588883
     48          6           0        2.151214    1.017798    3.755969
     49          1           0        2.783842   -0.783995    4.378264
     50          8           0        0.649681   -0.381031   -1.927989
     51          1           0        2.493080    1.695089    4.510491
     52          1           0        1.190018    2.295773    2.259216
     53          1           0        1.706009   -1.821978    2.397798
     54          1           0        4.036987   -5.379027   -1.106683
     55          1           0        4.316568   -5.190269    0.607748
     56          1           0        2.690355   -5.406696    0.006369
     57          1           0        7.545125   -3.747698   -0.862245
     58          1           0        6.561914   -4.300635    0.608216
     59          1           0        6.334902   -1.525789   -0.454819
     60          1           0        5.335890    0.026968   -0.780450
     61          1           0        5.911760    3.560275   -1.840784
     62          1           0        6.356326    2.606751   -0.445715
     63          1           0        6.076446    1.826653   -1.983954
     64          1           0        4.195806    6.615671   -1.815556
     65          1           0        5.224549    5.463761   -0.791110
     66          1           0        2.229263    5.213871   -1.332024
     67          1           0        0.817472    4.395915   -0.464378
     68          1           0       -2.406652    5.294310   -0.260000
     69          1           0       -2.152999    5.033893    1.449067
     70          1           0       -0.794918    5.388062    0.408275
     71          1           0       -4.045595    3.414449    1.367012
     72          1           0       -4.211252    1.682223    1.414270
     73          1           0       -4.654454    3.455456   -0.952114
     74          1           0       -4.682963    1.721900   -1.013063
     75          1           0        0.886715   -0.024905   -2.787401
     76          1           0        1.362297   -0.936939   -1.604347
     77          1           0       -4.158022   -3.581327    0.813940
     78          1           0       -4.308133   -1.855251    0.808549
     79          1           0       -4.471352   -1.883521   -1.606801
     80          1           0       -4.347969   -3.617857   -1.585488
     81          1           0       -6.909489   -1.591975   -2.084283
     82          1           0       -1.445035   -5.486987   -0.897681
     83          1           0       -0.917970   -5.513132    0.768028
     84          1           0       -2.611831   -5.309261    0.390754
     85          1           0       -3.404677   -0.151315    0.426314
     86          1           0        1.052471   -4.508431   -0.322680
     87          1           0       -7.188037    3.898366    1.028699
 ---------------------------------------------------------------------
 Rotational constants (GHZ):           0.0821145           0.0475077           0.0339279
 Standard basis: def2TZVP (5D, 7F)
 There are  2008 symmetry adapted cartesian basis functions of A   symmetry.
 There are  1761 symmetry adapted basis functions of A   symmetry.
  1761 basis functions,  2854 primitive gaussians,  2008 cartesian basis functions
   186 alpha electrons      182 beta electrons
       nuclear repulsion energy      7372.7539489848 Hartrees.
 NAtoms=   87 NActive=   87 NUniq=   87 SFac= 1.00D+00 NAtFMM=   60 NAOKFM=T Big=T
 Integral buffers will be    131072 words long.
 Raffenetti 2 integral format.
 Two-electron integral symmetry is turned on.
 Nuclear repulsion after empirical dispersion term =     7372.6319724319 Hartrees.
 One-electron integrals computed using PRISM.
   1 Symmetry operations used in ECPInt.
 ECPInt:  NShTT=  241860 NPrTT=  750929 LenC2=  176505 LenP2D=  356554.
 LDataN:  DoStor=T MaxTD1= 6 Len=  172
 NBasis=  1761 RedAO= T EigKep=  2.72D-06  NBF=  1761
 NBsUse=  1761 1.00D-06 EigRej= -1.00D+00 NBFU=  1761
 ExpMin= 4.20D-02 ExpMax= 3.01D+05 ExpMxC= 2.91D+03 IAcc=3 IRadAn=         5 AccDes= 0.00D+00
 Harris functional with IExCor= 1009 and IRadAn=       5 diagonalized for initial guess.
 HarFok:  IExCor= 1009 AccDes= 0.00D+00 IRadAn=         5 IDoV= 1 UseB2=F ITyADJ=14
 ICtDFT=  3500011 ScaDFX=  1.000000  1.000000  1.000000  1.000000
 FoFCou: FMM=F IPFlag=           0 FMFlag=      100000 FMFlg1=        2001
         NFxFlg=           0 DoJE=T BraDBF=F KetDBF=T FulRan=T
         wScrn=  0.000000 ICntrl=       500 IOpCl=  0 I1Cent=   200000004 NGrid=           0
         NMat0=    1 NMatS0=      1 NMatT0=    0 NMatD0=    1 NMtDS0=    0 NMtDT0=    0
 Petite list used in FoFCou.
 Initial guess <Sx>= 0.0000 <Sy>= 0.0000 <Sz>= 2.0000 <S**2>= 6.0000 S= 2.0000
 Requested convergence on RMS density matrix=1.00D-08 within 128 cycles.
 Requested convergence on MAX density matrix=1.00D-06.
 Requested convergence on             energy=1.00D-06.
 No special actions if energy rises.
 EnCoef did     6 forward-backward iterations
 EnCoef did    11 forward-backward iterations
 EnCoef did     2 forward-backward iterations
 Rare condition: small coef for last iteration:  0.000D+00
 Rare condition: small coef for last iteration:  0.000D+00
 Rare condition: small coef for last iteration:  0.000D+00
 Restarting incremental Fock formation.
 Rare condition: small coef for last iteration:  0.000D+00
 Rare condition: small coef for last iteration:  0.000D+00
 Rare condition: small coef for last iteration:  0.000D+00
 Rare condition: small coef for last iteration:  0.000D+00
 Rare condition: small coef for last iteration:  0.000D+00
 Rare condition: small coef for last iteration:  0.000D+00
 Rare condition: small coef for last iteration:  0.000D+00
 Rare condition: small coef for last iteration:  0.000D+00
 Restarting incremental Fock formation.
 Restarting incremental Fock formation.
 SCF Done:  E(UPBE1PBE) =  -3399.28131092     A.U. after   67 cycles
            NFock= 67  Conv=0.38D-08     -V/T= 2.0025
 <Sx>= 0.0000 <Sy>= 0.0000 <Sz>= 2.0000 <S**2>= 6.2553 S= 2.0505
 <L.S>= 0.000000000000E+00
 Annihilation of the first spin contaminant:
 S**2 before annihilation     6.2553,   after     6.0175

 **********************************************************************

            Population analysis using the SCF density.

 **********************************************************************

 Orbital symmetries:
 Alpha Orbitals:
       Occupied  (A) (A) (A) (A) (A) (A) (A) (A) (A) (A) (A) (A)
                 (A) (A) (A) (A) (A) (A) (A) (A) (A) (A) (A) (A)
                 (A) (A) (A) (A) (A) (A) (A) (A) (A) (A) (A) (A)
                 (A) (A) (A) (A) (A) (A) (A) (A) (A) (A) (A) (A)
                 (A) (A) (A) (A) (A) (A) (A) (A) (A) (A) (A) (A)
                 (A) (A) (A) (A) (A) (A) (A) (A) (A) (A) (A) (A)
                 (A) (A) (A) (A) (A) (A) (A) (A) (A) (A) (A) (A)
                 (A) (A) (A) (A) (A) (A) (A) (A) (A) (A) (A) (A)
                 (A) (A) (A) (A) (A) (A) (A) (A) (A) (A) (A) (A)
                 (A) (A) (A) (A) (A) (A) (A) (A) (A) (A) (A) (A)
                 (A) (A) (A) (A) (A) (A) (A) (A) (A) (A) (A) (A)
                 (A) (A) (A) (A) (A) (A) (A) (A) (A) (A) (A) (A)
                 (A) (A) (A) (A) (A) (A) (A) (A) (A) (A) (A) (A)
                 (A) (A) (A) (A) (A) (A) (A) (A) (A) (A) (A) (A)
                 (A) (A) (A) (A) (A) (A) (A) (A) (A) (A) (A) (A)
                 (A) (A) (A) (A) (A) (A)
       Virtual   (A) (A) (A) (A) (A) (A) (A) (A) (A) (A) (A) (A)
                 (A) (A) (A) (A) (A) (A) (A) (A) (A) (A) (A) (A)
                 (A) (A) (A) (A) (A) (A) (A) (A) (A) (A) (A) (A)
                 (A) (A) (A) (A) (A) (A) (A) (A) (A) (A) (A) (A)
                 (A) (A) (A) (A) (A) (A) (A) (A) (A) (A) (A) (A)
                 (A) (A) (A) (A) (A) (A) (A) (A) (A) (A) (A) (A)
                 (A) (A) (A) (A) (A) (A) (A) (A) (A) (A) (A) (A)
                 (A) (A) (A) (A) (A) (A) (A) (A) (A) (A) (A) (A)
                 (A) (A) (A) (A) (A) (A) (A) (A) (A) (A) (A) (A)
                 (A) (A) (A) (A) (A) (A) (A) (A) (A) (A) (A) (A)
                 (A) (A) (A) (A) (A) (A) (A) (A) (A) (A) (A) (A)
                 (A) (A) (A) (A) (A) (A) (A) (A) (A) (A) (A) (A)
                 (A) (A) (A) (A) (A) (A) (A) (A) (A) (A) (A) (A)
                 (A) (A) (A) (A) (A) (A) (A) (A) (A) (A) (A) (A)
                 (A) (A) (A) (A) (A) (A) (A) (A) (A) (A) (A) (A)
                 (A) (A) (A) (A) (A) (A) (A) (A) (A) (A) (A) (A)
                 (A) (A) (A) (A) (A) (A) (A) (A) (A) (A) (A) (A)
                 (A) (A) (A) (A) (A) (A) (A) (A) (A) (A) (A) (A)
                 (A) (A) (A) (A) (A) (A) (A) (A) (A) (A) (A) (A)
                 (A) (A) (A) (A) (A) (A) (A) (A) (A) (A) (A) (A)
                 (A) (A) (A) (A) (A) (A) (A) (A) (A) (A) (A) (A)
                 (A) (A) (A) (A) (A) (A) (A) (A) (A) (A) (A) (A)
                 (A) (A) (A) (A) (A) (A) (A) (A) (A) (A) (A) (A)
                 (A) (A) (A) (A) (A) (A) (A) (A) (A) (A) (A) (A)
                 (A) (A) (A) (A) (A) (A) (A) (A) (A) (A) (A) (A)
                 (A) (A) (A) (A) (A) (A) (A) (A) (A) (A) (A) (A)
                 (A) (A) (A) (A) (A) (A) (A) (A) (A) (A) (A) (A)
                 (A) (A) (A) (A) (A) (A) (A) (A) (A) (A) (A) (A)
                 (A) (A) (A) (A) (A) (A) (A) (A) (A) (A) (A) (A)
                 (A) (A) (A) (A) (A) (A) (A) (A) (A) (A) (A) (A)
                 (A) (A) (A) (A) (A) (A) (A) (A) (A) (A) (A) (A)
                 (A) (A) (A) (A) (A) (A) (A) (A) (A) (A) (A) (A)
                 (A) (A) (A) (A) (A) (A) (A) (A) (A) (A) (A) (A)
                 (A) (A) (A) (A) (A) (A) (A) (A) (A) (A) (A) (A)
                 (A) (A) (A) (A) (A) (A) (A) (A) (A) (A) (A) (A)
                 (A) (A) (A) (A) (A) (A) (A) (A) (A) (A) (A) (A)
                 (A) (A) (A) (A) (A) (A) (A) (A) (A) (A) (A) (A)
                 (A) (A) (A) (A) (A) (A) (A) (A) (A) (A) (A) (A)
                 (A) (A) (A) (A) (A) (A) (A) (A) (A) (A) (A) (A)
                 (A) (A) (A) (A) (A) (A) (A) (A) (A) (A) (A) (A)
                 (A) (A) (A) (A) (A) (A) (A) (A) (A) (A) (A) (A)
                 (A) (A) (A) (A) (A) (A) (A) (A) (A) (A) (A) (A)
                 (A) (A) (A) (A) (A) (A) (A) (A) (A) (A) (A) (A)
                 (A) (A) (A) (A) (A) (A) (A) (A) (A) (A) (A) (A)
                 (A) (A) (A) (A) (A) (A) (A) (A) (A) (A) (A) (A)
                 (A) (A) (A) (A) (A) (A) (A) (A) (A) (A) (A) (A)
                 (A) (A) (A) (A) (A) (A) (A) (A) (A) (A) (A) (A)
                 (A) (A) (A) (A) (A) (A) (A) (A) (A) (A) (A) (A)
                 (A) (A) (A) (A) (A) (A) (A) (A) (A) (A) (A) (A)
                 (A) (A) (A) (A) (A) (A) (A) (A) (A) (A) (A) (A)
                 (A) (A) (A) (A) (A) (A) (A) (A) (A) (A) (A) (A)
                 (A) (A) (A) (A) (A) (A) (A) (A) (A) (A) (A) (A)
                 (A) (A) (A) (A) (A) (A) (A) (A) (A) (A) (A) (A)
                 (A) (A) (A) (A) (A) (A) (A) (A) (A) (A) (A) (A)
                 (A) (A) (A) (A) (A) (A) (A) (A) (A) (A) (A) (A)
                 (A) (A) (A) (A) (A) (A) (A) (A) (A) (A) (A) (A)
                 (A) (A) (A) (A) (A) (A) (A) (A) (A) (A) (A) (A)
                 (A) (A) (A) (A) (A) (A) (A) (A) (A) (A) (A) (A)
                 (A) (A) (A) (A) (A) (A) (A) (A) (A) (A) (A) (A)
                 (A) (A) (A) (A) (A) (A) (A) (A) (A) (A) (A) (A)
                 (A) (A) (A) (A) (A) (A) (A) (A) (A) (A) (A) (A)
                 (A) (A) (A) (A) (A) (A) (A) (A) (A) (A) (A) (A)
                 (A) (A) (A) (A) (A) (A) (A) (A) (A) (A) (A) (A)
                 (A) (A) (A) (A) (A) (A) (A) (A) (A) (A) (A) (A)
                 (A) (A) (A) (A) (A) (A) (A) (A) (A) (A) (A) (A)
                 (A) (A) (A) (A) (A) (A) (A) (A) (A) (A) (A) (A)
                 (A) (A) (A) (A) (A) (A) (A) (A) (A) (A) (A) (A)
                 (A) (A) (A) (A) (A) (A) (A) (A) (A) (A) (A) (A)
                 (A) (A) (A) (A) (A) (A) (A) (A) (A) (A) (A) (A)
                 (A) (A) (A) (A) (A) (A) (A) (A) (A) (A) (A) (A)
                 (A) (A) (A) (A) (A) (A) (A) (A) (A) (A) (A) (A)
                 (A) (A) (A) (A) (A) (A) (A) (A) (A) (A) (A) (A)
                 (A) (A) (A) (A) (A) (A) (A) (A) (A) (A) (A) (A)
                 (A) (A) (A) (A) (A) (A) (A) (A) (A) (A) (A) (A)
                 (A) (A) (A) (A) (A) (A) (A) (A) (A) (A) (A) (A)
                 (A) (A) (A) (A) (A) (A) (A) (A) (A) (A) (A) (A)
                 (A) (A) (A) (A) (A) (A) (A) (A) (A) (A) (A) (A)
                 (A) (A) (A) (A) (A) (A) (A) (A) (A) (A) (A) (A)
                 (A) (A) (A) (A) (A) (A) (A) (A) (A) (A) (A) (A)
                 (A) (A) (A) (A) (A) (A) (A) (A) (A) (A) (A) (A)
                 (A) (A) (A) (A) (A) (A) (A) (A) (A) (A) (A) (A)
                 (A) (A) (A) (A) (A) (A) (A) (A) (A) (A) (A) (A)
                 (A) (A) (A) (A) (A) (A) (A) (A) (A) (A) (A) (A)
                 (A) (A) (A) (A) (A) (A) (A) (A) (A) (A) (A) (A)
                 (A) (A) (A) (A) (A) (A) (A) (A) (A) (A) (A) (A)
                 (A) (A) (A) (A) (A) (A) (A) (A) (A) (A) (A) (A)
                 (A) (A) (A) (A) (A) (A) (A) (A) (A) (A) (A) (A)
                 (A) (A) (A) (A) (A) (A) (A) (A) (A) (A) (A) (A)
                 (A) (A) (A) (A) (A) (A) (A) (A) (A) (A) (A) (A)
                 (A) (A) (A) (A) (A) (A) (A) (A) (A) (A) (A) (A)
                 (A) (A) (A) (A) (A) (A) (A) (A) (A) (A) (A) (A)
                 (A) (A) (A) (A) (A) (A) (A) (A) (A) (A) (A) (A)
                 (A) (A) (A) (A) (A) (A) (A) (A) (A) (A) (A) (A)
                 (A) (A) (A) (A) (A) (A) (A) (A) (A) (A) (A) (A)
                 (A) (A) (A) (A) (A) (A) (A) (A) (A) (A) (A) (A)
                 (A) (A) (A) (A) (A) (A) (A) (A) (A) (A) (A) (A)
                 (A) (A) (A) (A) (A) (A) (A) (A) (A) (A) (A) (A)
                 (A) (A) (A) (A) (A) (A) (A) (A) (A) (A) (A) (A)
                 (A) (A) (A) (A) (A) (A) (A) (A) (A) (A) (A) (A)
                 (A) (A) (A) (A) (A) (A) (A) (A) (A) (A) (A) (A)
                 (A) (A) (A) (A) (A) (A) (A) (A) (A) (A) (A) (A)
                 (A) (A) (A) (A) (A) (A) (A) (A) (A) (A) (A) (A)
                 (A) (A) (A) (A) (A) (A) (A) (A) (A) (A) (A) (A)
                 (A) (A) (A) (A) (A) (A) (A) (A) (A) (A) (A) (A)
                 (A) (A) (A) (A) (A) (A) (A) (A) (A) (A) (A) (A)
                 (A) (A) (A) (A) (A) (A) (A) (A) (A) (A) (A) (A)
                 (A) (A) (A) (A) (A) (A) (A) (A) (A) (A) (A) (A)
                 (A) (A) (A) (A) (A) (A) (A) (A) (A) (A) (A) (A)
                 (A) (A) (A) (A) (A) (A) (A) (A) (A) (A) (A) (A)
                 (A) (A) (A) (A) (A) (A) (A) (A) (A) (A) (A) (A)
                 (A) (A) (A) (A) (A) (A) (A) (A) (A) (A) (A) (A)
                 (A) (A) (A) (A) (A) (A) (A) (A) (A) (A) (A) (A)
                 (A) (A) (A) (A) (A) (A) (A) (A) (A) (A) (A) (A)
                 (A) (A) (A) (A) (A) (A) (A) (A) (A) (A) (A) (A)
                 (A) (A) (A) (A) (A) (A) (A) (A) (A) (A) (A) (A)
                 (A) (A) (A) (A) (A) (A) (A) (A) (A) (A) (A) (A)
                 (A) (A) (A) (A) (A) (A) (A) (A) (A) (A) (A) (A)
                 (A) (A) (A) (A) (A) (A) (A) (A) (A) (A) (A) (A)
                 (A) (A) (A) (A) (A) (A) (A) (A) (A) (A) (A) (A)
                 (A) (A) (A) (A) (A) (A) (A) (A) (A) (A) (A) (A)
                 (A) (A) (A) (A) (A) (A) (A) (A) (A) (A) (A) (A)
                 (A) (A) (A) (A) (A) (A) (A) (A) (A) (A) (A) (A)
                 (A) (A) (A) (A) (A) (A) (A) (A) (A) (A) (A) (A)
                 (A) (A) (A) (A) (A) (A) (A) (A) (A) (A) (A) (A)
                 (A) (A) (A) (A) (A) (A) (A) (A) (A) (A) (A) (A)
                 (A) (A) (A) (A) (A) (A) (A) (A) (A) (A) (A) (A)
                 (A) (A) (A) (A) (A) (A) (A) (A) (A) (A) (A) (A)
                 (A) (A) (A) (A) (A) (A) (A) (A) (A) (A) (A) (A)
                 (A) (A) (A) (A) (A) (A) (A) (A) (A) (A) (A) (A)
                 (A) (A) (A) (A) (A) (A) (A) (A) (A) (A) (A) (A)
                 (A) (A) (A) (A) (A) (A) (A) (A) (A) (A) (A) (A)
                 (A) (A) (A)
 Beta  Orbitals:
       Occupied  (A) (A) (A) (A) (A) (A) (A) (A) (A) (A) (A) (A)
                 (A) (A) (A) (A) (A) (A) (A) (A) (A) (A) (A) (A)
                 (A) (A) (A) (A) (A) (A) (A) (A) (A) (A) (A) (A)
                 (A) (A) (A) (A) (A) (A) (A) (A) (A) (A) (A) (A)
                 (A) (A) (A) (A) (A) (A) (A) (A) (A) (A) (A) (A)
                 (A) (A) (A) (A) (A) (A) (A) (A) (A) (A) (A) (A)
                 (A) (A) (A) (A) (A) (A) (A) (A) (A) (A) (A) (A)
                 (A) (A) (A) (A) (A) (A) (A) (A) (A) (A) (A) (A)
                 (A) (A) (A) (A) (A) (A) (A) (A) (A) (A) (A) (A)
                 (A) (A) (A) (A) (A) (A) (A) (A) (A) (A) (A) (A)
                 (A) (A) (A) (A) (A) (A) (A) (A) (A) (A) (A) (A)
                 (A) (A) (A) (A) (A) (A) (A) (A) (A) (A) (A) (A)
                 (A) (A) (A) (A) (A) (A) (A) (A) (A) (A) (A) (A)
                 (A) (A) (A) (A) (A) (A) (A) (A) (A) (A) (A) (A)
                 (A) (A) (A) (A) (A) (A) (A) (A) (A) (A) (A) (A)
                 (A) (A)
       Virtual   (A) (A) (A) (A) (A) (A) (A) (A) (A) (A) (A) (A)
                 (A) (A) (A) (A) (A) (A) (A) (A) (A) (A) (A) (A)
                 (A) (A) (A) (A) (A) (A) (A) (A) (A) (A) (A) (A)
                 (A) (A) (A) (A) (A) (A) (A) (A) (A) (A) (A) (A)
                 (A) (A) (A) (A) (A) (A) (A) (A) (A) (A) (A) (A)
                 (A) (A) (A) (A) (A) (A) (A) (A) (A) (A) (A) (A)
                 (A) (A) (A) (A) (A) (A) (A) (A) (A) (A) (A) (A)
                 (A) (A) (A) (A) (A) (A) (A) (A) (A) (A) (A) (A)
                 (A) (A) (A) (A) (A) (A) (A) (A) (A) (A) (A) (A)
                 (A) (A) (A) (A) (A) (A) (A) (A) (A) (A) (A) (A)
                 (A) (A) (A) (A) (A) (A) (A) (A) (A) (A) (A) (A)
                 (A) (A) (A) (A) (A) (A) (A) (A) (A) (A) (A) (A)
                 (A) (A) (A) (A) (A) (A) (A) (A) (A) (A) (A) (A)
                 (A) (A) (A) (A) (A) (A) (A) (A) (A) (A) (A) (A)
                 (A) (A) (A) (A) (A) (A) (A) (A) (A) (A) (A) (A)
                 (A) (A) (A) (A) (A) (A) (A) (A) (A) (A) (A) (A)
                 (A) (A) (A) (A) (A) (A) (A) (A) (A) (A) (A) (A)
                 (A) (A) (A) (A) (A) (A) (A) (A) (A) (A) (A) (A)
                 (A) (A) (A) (A) (A) (A) (A) (A) (A) (A) (A) (A)
                 (A) (A) (A) (A) (A) (A) (A) (A) (A) (A) (A) (A)
                 (A) (A) (A) (A) (A) (A) (A) (A) (A) (A) (A) (A)
                 (A) (A) (A) (A) (A) (A) (A) (A) (A) (A) (A) (A)
                 (A) (A) (A) (A) (A) (A) (A) (A) (A) (A) (A) (A)
                 (A) (A) (A) (A) (A) (A) (A) (A) (A) (A) (A) (A)
                 (A) (A) (A) (A) (A) (A) (A) (A) (A) (A) (A) (A)
                 (A) (A) (A) (A) (A) (A) (A) (A) (A) (A) (A) (A)
                 (A) (A) (A) (A) (A) (A) (A) (A) (A) (A) (A) (A)
                 (A) (A) (A) (A) (A) (A) (A) (A) (A) (A) (A) (A)
                 (A) (A) (A) (A) (A) (A) (A) (A) (A) (A) (A) (A)
                 (A) (A) (A) (A) (A) (A) (A) (A) (A) (A) (A) (A)
                 (A) (A) (A) (A) (A) (A) (A) (A) (A) (A) (A) (A)
                 (A) (A) (A) (A) (A) (A) (A) (A) (A) (A) (A) (A)
                 (A) (A) (A) (A) (A) (A) (A) (A) (A) (A) (A) (A)
                 (A) (A) (A) (A) (A) (A) (A) (A) (A) (A) (A) (A)
                 (A) (A) (A) (A) (A) (A) (A) (A) (A) (A) (A) (A)
                 (A) (A) (A) (A) (A) (A) (A) (A) (A) (A) (A) (A)
                 (A) (A) (A) (A) (A) (A) (A) (A) (A) (A) (A) (A)
                 (A) (A) (A) (A) (A) (A) (A) (A) (A) (A) (A) (A)
                 (A) (A) (A) (A) (A) (A) (A) (A) (A) (A) (A) (A)
                 (A) (A) (A) (A) (A) (A) (A) (A) (A) (A) (A) (A)
                 (A) (A) (A) (A) (A) (A) (A) (A) (A) (A) (A) (A)
                 (A) (A) (A) (A) (A) (A) (A) (A) (A) (A) (A) (A)
                 (A) (A) (A) (A) (A) (A) (A) (A) (A) (A) (A) (A)
                 (A) (A) (A) (A) (A) (A) (A) (A) (A) (A) (A) (A)
                 (A) (A) (A) (A) (A) (A) (A) (A) (A) (A) (A) (A)
                 (A) (A) (A) (A) (A) (A) (A) (A) (A) (A) (A) (A)
                 (A) (A) (A) (A) (A) (A) (A) (A) (A) (A) (A) (A)
                 (A) (A) (A) (A) (A) (A) (A) (A) (A) (A) (A) (A)
                 (A) (A) (A) (A) (A) (A) (A) (A) (A) (A) (A) (A)
                 (A) (A) (A) (A) (A) (A) (A) (A) (A) (A) (A) (A)
                 (A) (A) (A) (A) (A) (A) (A) (A) (A) (A) (A) (A)
                 (A) (A) (A) (A) (A) (A) (A) (A) (A) (A) (A) (A)
                 (A) (A) (A) (A) (A) (A) (A) (A) (A) (A) (A) (A)
                 (A) (A) (A) (A) (A) (A) (A) (A) (A) (A) (A) (A)
                 (A) (A) (A) (A) (A) (A) (A) (A) (A) (A) (A) (A)
                 (A) (A) (A) (A) (A) (A) (A) (A) (A) (A) (A) (A)
                 (A) (A) (A) (A) (A) (A) (A) (A) (A) (A) (A) (A)
                 (A) (A) (A) (A) (A) (A) (A) (A) (A) (A) (A) (A)
                 (A) (A) (A) (A) (A) (A) (A) (A) (A) (A) (A) (A)
                 (A) (A) (A) (A) (A) (A) (A) (A) (A) (A) (A) (A)
                 (A) (A) (A) (A) (A) (A) (A) (A) (A) (A) (A) (A)
                 (A) (A) (A) (A) (A) (A) (A) (A) (A) (A) (A) (A)
                 (A) (A) (A) (A) (A) (A) (A) (A) (A) (A) (A) (A)
                 (A) (A) (A) (A) (A) (A) (A) (A) (A) (A) (A) (A)
                 (A) (A) (A) (A) (A) (A) (A) (A) (A) (A) (A) (A)
                 (A) (A) (A) (A) (A) (A) (A) (A) (A) (A) (A) (A)
                 (A) (A) (A) (A) (A) (A) (A) (A) (A) (A) (A) (A)
                 (A) (A) (A) (A) (A) (A) (A) (A) (A) (A) (A) (A)
                 (A) (A) (A) (A) (A) (A) (A) (A) (A) (A) (A) (A)
                 (A) (A) (A) (A) (A) (A) (A) (A) (A) (A) (A) (A)
                 (A) (A) (A) (A) (A) (A) (A) (A) (A) (A) (A) (A)
                 (A) (A) (A) (A) (A) (A) (A) (A) (A) (A) (A) (A)
                 (A) (A) (A) (A) (A) (A) (A) (A) (A) (A) (A) (A)
                 (A) (A) (A) (A) (A) (A) (A) (A) (A) (A) (A) (A)
                 (A) (A) (A) (A) (A) (A) (A) (A) (A) (A) (A) (A)
                 (A) (A) (A) (A) (A) (A) (A) (A) (A) (A) (A) (A)
                 (A) (A) (A) (A) (A) (A) (A) (A) (A) (A) (A) (A)
                 (A) (A) (A) (A) (A) (A) (A) (A) (A) (A) (A) (A)
                 (A) (A) (A) (A) (A) (A) (A) (A) (A) (A) (A) (A)
                 (A) (A) (A) (A) (A) (A) (A) (A) (A) (A) (A) (A)
                 (A) (A) (A) (A) (A) (A) (A) (A) (A) (A) (A) (A)
                 (A) (A) (A) (A) (A) (A) (A) (A) (A) (A) (A) (A)
                 (A) (A) (A) (A) (A) (A) (A) (A) (A) (A) (A) (A)
                 (A) (A) (A) (A) (A) (A) (A) (A) (A) (A) (A) (A)
                 (A) (A) (A) (A) (A) (A) (A) (A) (A) (A) (A) (A)
                 (A) (A) (A) (A) (A) (A) (A) (A) (A) (A) (A) (A)
                 (A) (A) (A) (A) (A) (A) (A) (A) (A) (A) (A) (A)
                 (A) (A) (A) (A) (A) (A) (A) (A) (A) (A) (A) (A)
                 (A) (A) (A) (A) (A) (A) (A) (A) (A) (A) (A) (A)
                 (A) (A) (A) (A) (A) (A) (A) (A) (A) (A) (A) (A)
                 (A) (A) (A) (A) (A) (A) (A) (A) (A) (A) (A) (A)
                 (A) (A) (A) (A) (A) (A) (A) (A) (A) (A) (A) (A)
                 (A) (A) (A) (A) (A) (A) (A) (A) (A) (A) (A) (A)
                 (A) (A) (A) (A) (A) (A) (A) (A) (A) (A) (A) (A)
                 (A) (A) (A) (A) (A) (A) (A) (A) (A) (A) (A) (A)
                 (A) (A) (A) (A) (A) (A) (A) (A) (A) (A) (A) (A)
                 (A) (A) (A) (A) (A) (A) (A) (A) (A) (A) (A) (A)
                 (A) (A) (A) (A) (A) (A) (A) (A) (A) (A) (A) (A)
                 (A) (A) (A) (A) (A) (A) (A) (A) (A) (A) (A) (A)
                 (A) (A) (A) (A) (A) (A) (A) (A) (A) (A) (A) (A)
                 (A) (A) (A) (A) (A) (A) (A) (A) (A) (A) (A) (A)
                 (A) (A) (A) (A) (A) (A) (A) (A) (A) (A) (A) (A)
                 (A) (A) (A) (A) (A) (A) (A) (A) (A) (A) (A) (A)
                 (A) (A) (A) (A) (A) (A) (A) (A) (A) (A) (A) (A)
                 (A) (A) (A) (A) (A) (A) (A) (A) (A) (A) (A) (A)
                 (A) (A) (A) (A) (A) (A) (A) (A) (A) (A) (A) (A)
                 (A) (A) (A) (A) (A) (A) (A) (A) (A) (A) (A) (A)
                 (A) (A) (A) (A) (A) (A) (A) (A) (A) (A) (A) (A)
                 (A) (A) (A) (A) (A) (A) (A) (A) (A) (A) (A) (A)
                 (A) (A) (A) (A) (A) (A) (A) (A) (A) (A) (A) (A)
                 (A) (A) (A) (A) (A) (A) (A) (A) (A) (A) (A) (A)
                 (A) (A) (A) (A) (A) (A) (A) (A) (A) (A) (A) (A)
                 (A) (A) (A) (A) (A) (A) (A) (A) (A) (A) (A) (A)
                 (A) (A) (A) (A) (A) (A) (A) (A) (A) (A) (A) (A)
                 (A) (A) (A) (A) (A) (A) (A) (A) (A) (A) (A) (A)
                 (A) (A) (A) (A) (A) (A) (A) (A) (A) (A) (A) (A)
                 (A) (A) (A) (A) (A) (A) (A) (A) (A) (A) (A) (A)
                 (A) (A) (A) (A) (A) (A) (A) (A) (A) (A) (A) (A)
                 (A) (A) (A) (A) (A) (A) (A) (A) (A) (A) (A) (A)
                 (A) (A) (A) (A) (A) (A) (A) (A) (A) (A) (A) (A)
                 (A) (A) (A) (A) (A) (A) (A) (A) (A) (A) (A) (A)
                 (A) (A) (A) (A) (A) (A) (A) (A) (A) (A) (A) (A)
                 (A) (A) (A) (A) (A) (A) (A) (A) (A) (A) (A) (A)
                 (A) (A) (A) (A) (A) (A) (A) (A) (A) (A) (A) (A)
                 (A) (A) (A) (A) (A) (A) (A) (A) (A) (A) (A) (A)
                 (A) (A) (A) (A) (A) (A) (A) (A) (A) (A) (A) (A)
                 (A) (A) (A) (A) (A) (A) (A) (A) (A) (A) (A) (A)
                 (A) (A) (A) (A) (A) (A) (A) (A) (A) (A) (A) (A)
                 (A) (A) (A) (A) (A) (A) (A) (A) (A) (A) (A) (A)
                 (A) (A) (A) (A) (A) (A) (A) (A) (A) (A) (A) (A)
                 (A) (A) (A) (A) (A) (A) (A) (A) (A) (A) (A) (A)
                 (A) (A) (A) (A) (A) (A) (A)
 The electronic state is 5-A.
 Alpha  occ. eigenvalues -- -256.42778 -30.23439 -26.06854 -26.04756 -26.04595
 Alpha  occ. eigenvalues --  -19.25841 -19.25017 -19.22803 -19.17933 -19.16747
 Alpha  occ. eigenvalues --  -14.48026 -14.41705 -14.38477 -14.38286 -14.37510
 Alpha  occ. eigenvalues --  -14.37187 -10.34898 -10.34068 -10.30655 -10.27506
 Alpha  occ. eigenvalues --  -10.26239 -10.24652 -10.24384 -10.24381 -10.24272
 Alpha  occ. eigenvalues --  -10.24182 -10.24098 -10.24096 -10.23753 -10.23086
 Alpha  occ. eigenvalues --  -10.22944 -10.22738 -10.22603 -10.22589 -10.22567
 Alpha  occ. eigenvalues --  -10.22519 -10.22508 -10.22307 -10.22290 -10.22231
 Alpha  occ. eigenvalues --  -10.22142 -10.21843 -10.21832 -10.21804 -10.21687
 Alpha  occ. eigenvalues --  -10.21683 -10.21575 -10.21309 -10.21129 -10.21093
 Alpha  occ. eigenvalues --  -10.20983 -10.20768 -10.20135  -3.63200  -2.43186
 Alpha  occ. eigenvalues --   -2.37136  -2.36858  -1.18190  -1.16954  -1.13068
 Alpha  occ. eigenvalues --   -1.08290  -1.03782  -1.02301  -1.01378  -1.00771
 Alpha  occ. eigenvalues --   -0.99955  -0.99482  -0.97030  -0.84626  -0.84010
 Alpha  occ. eigenvalues --   -0.83634  -0.82959  -0.82634  -0.81941  -0.81931
 Alpha  occ. eigenvalues --   -0.81557  -0.79788  -0.79031  -0.77170  -0.75556
 Alpha  occ. eigenvalues --   -0.75470  -0.74167  -0.73106  -0.72315  -0.71708
 Alpha  occ. eigenvalues --   -0.70591  -0.70197  -0.70079  -0.69061  -0.67349
 Alpha  occ. eigenvalues --   -0.67073  -0.66867  -0.66078  -0.65831  -0.63172
 Alpha  occ. eigenvalues --   -0.62933  -0.62556  -0.61047  -0.59218  -0.59114
 Alpha  occ. eigenvalues --   -0.57421  -0.56154  -0.55014  -0.54314  -0.53246
 Alpha  occ. eigenvalues --   -0.53079  -0.52964  -0.52749  -0.52595  -0.52222
 Alpha  occ. eigenvalues --   -0.51713  -0.51237  -0.50790  -0.49820  -0.49556
 Alpha  occ. eigenvalues --   -0.49370  -0.49233  -0.48896  -0.48736  -0.48341
 Alpha  occ. eigenvalues --   -0.47851  -0.46785  -0.46443  -0.46208  -0.45690
 Alpha  occ. eigenvalues --   -0.45324  -0.45065  -0.44752  -0.44673  -0.44181
 Alpha  occ. eigenvalues --   -0.43927  -0.43868  -0.43496  -0.43173  -0.42853
 Alpha  occ. eigenvalues --   -0.42608  -0.42368  -0.41989  -0.41725  -0.41421
 Alpha  occ. eigenvalues --   -0.41184  -0.41042  -0.40752  -0.40394  -0.40239
 Alpha  occ. eigenvalues --   -0.39985  -0.39767  -0.39683  -0.39419  -0.38863
 Alpha  occ. eigenvalues --   -0.38773  -0.38706  -0.38488  -0.38105  -0.37926
 Alpha  occ. eigenvalues --   -0.37439  -0.37337  -0.37019  -0.36617  -0.36288
 Alpha  occ. eigenvalues --   -0.35996  -0.35260  -0.35162  -0.34756  -0.34379
 Alpha  occ. eigenvalues --   -0.33970  -0.33598  -0.33473  -0.32352  -0.32026
 Alpha  occ. eigenvalues --   -0.31377  -0.30658  -0.30019  -0.28435  -0.28182
 Alpha  occ. eigenvalues --   -0.27948  -0.27433  -0.26960  -0.25663  -0.24217
 Alpha  occ. eigenvalues --   -0.24033  -0.22420  -0.21609  -0.20457  -0.20043
 Alpha  occ. eigenvalues --   -0.12826
 Alpha virt. eigenvalues --   -0.10767  -0.08492  -0.05616  -0.02488  -0.01482
 Alpha virt. eigenvalues --   -0.00361   0.00159   0.00390   0.01453   0.02430
 Alpha virt. eigenvalues --    0.02645   0.03148   0.03728   0.04383   0.04563
 Alpha virt. eigenvalues --    0.05629   0.05695   0.05876   0.06400   0.06833
 Alpha virt. eigenvalues --    0.07216   0.07670   0.07754   0.08079   0.08236
 Alpha virt. eigenvalues --    0.08513   0.09006   0.09116   0.09403   0.09590
 Alpha virt. eigenvalues --    0.10252   0.10514   0.10958   0.11236   0.11449
 Alpha virt. eigenvalues --    0.11718   0.12134   0.12284   0.12680   0.12927
 Alpha virt. eigenvalues --    0.13078   0.13241   0.13391   0.13681   0.13877
 Alpha virt. eigenvalues --    0.14173   0.14345   0.14654   0.14897   0.15097
 Alpha virt. eigenvalues --    0.15130   0.15806   0.15910   0.16150   0.16269
 Alpha virt. eigenvalues --    0.16544   0.16716   0.16949   0.17037   0.17294
 Alpha virt. eigenvalues --    0.17728   0.17927   0.17998   0.18110   0.18568
 Alpha virt. eigenvalues --    0.18688   0.19050   0.19375   0.19689   0.19785
 Alpha virt. eigenvalues --    0.19930   0.20272   0.20503   0.20821   0.20944
 Alpha virt. eigenvalues --    0.21218   0.21655   0.21782   0.22087   0.22235
 Alpha virt. eigenvalues --    0.22539   0.22633   0.22901   0.23002   0.23067
 Alpha virt. eigenvalues --    0.23184   0.23475   0.23624   0.23897   0.24192
 Alpha virt. eigenvalues --    0.24351   0.24651   0.24858   0.25228   0.25518
 Alpha virt. eigenvalues --    0.26061   0.26263   0.26437   0.26740   0.26814
 Alpha virt. eigenvalues --    0.27013   0.27277   0.27478   0.27692   0.27772
 Alpha virt. eigenvalues --    0.28217   0.28263   0.28810   0.28887   0.29189
 Alpha virt. eigenvalues --    0.29313   0.29525   0.29731   0.30013   0.30289
 Alpha virt. eigenvalues --    0.30492   0.30731   0.30836   0.31027   0.31273
 Alpha virt. eigenvalues --    0.31576   0.31978   0.32283   0.32382   0.32879
 Alpha virt. eigenvalues --    0.33032   0.33386   0.33489   0.33759   0.34011
 Alpha virt. eigenvalues --    0.34369   0.34744   0.34857   0.35000   0.35152
 Alpha virt. eigenvalues --    0.35260   0.35799   0.36269   0.36381   0.36635
 Alpha virt. eigenvalues --    0.36962   0.37147   0.37362   0.37686   0.37867
 Alpha virt. eigenvalues --    0.38088   0.38311   0.38434   0.38563   0.38840
 Alpha virt. eigenvalues --    0.38944   0.39069   0.39240   0.39470   0.39655
 Alpha virt. eigenvalues --    0.39929   0.40061   0.40202   0.40715   0.40738
 Alpha virt. eigenvalues --    0.40788   0.41308   0.41468   0.41536   0.41840
 Alpha virt. eigenvalues --    0.42282   0.42394   0.42588   0.42905   0.42937
 Alpha virt. eigenvalues --    0.43073   0.43242   0.43460   0.43790   0.44092
 Alpha virt. eigenvalues --    0.44240   0.44494   0.44755   0.44943   0.45062
 Alpha virt. eigenvalues --    0.45184   0.45340   0.45539   0.45656   0.45775
 Alpha virt. eigenvalues --    0.45987   0.46284   0.46504   0.46742   0.46912
 Alpha virt. eigenvalues --    0.47142   0.47313   0.47356   0.47780   0.48085
 Alpha virt. eigenvalues --    0.48222   0.48494   0.48776   0.48876   0.48915
 Alpha virt. eigenvalues --    0.49139   0.49362   0.49605   0.49677   0.49906
 Alpha virt. eigenvalues --    0.50059   0.50230   0.50502   0.50602   0.50880
 Alpha virt. eigenvalues --    0.51037   0.51231   0.51444   0.51698   0.51873
 Alpha virt. eigenvalues --    0.52108   0.52367   0.52413   0.52646   0.52774
 Alpha virt. eigenvalues --    0.52991   0.53054   0.53327   0.53514   0.53847
 Alpha virt. eigenvalues --    0.53984   0.54150   0.54521   0.54743   0.54844
 Alpha virt. eigenvalues --    0.55212   0.55328   0.55821   0.56130   0.56250
 Alpha virt. eigenvalues --    0.56460   0.56583   0.56770   0.57040   0.57205
 Alpha virt. eigenvalues --    0.57495   0.58046   0.58503   0.58777   0.58883
 Alpha virt. eigenvalues --    0.59088   0.59325   0.59373   0.59771   0.59897
 Alpha virt. eigenvalues --    0.60396   0.60563   0.60980   0.61347   0.61373
 Alpha virt. eigenvalues --    0.61804   0.62062   0.62268   0.62515   0.62644
 Alpha virt. eigenvalues --    0.63008   0.63160   0.63447   0.63815   0.63996
 Alpha virt. eigenvalues --    0.64468   0.64531   0.64710   0.65241   0.65502
 Alpha virt. eigenvalues --    0.65722   0.65956   0.66185   0.66420   0.66681
 Alpha virt. eigenvalues --    0.66848   0.67239   0.67419   0.67625   0.68047
 Alpha virt. eigenvalues --    0.68146   0.68284   0.68646   0.69054   0.69265
 Alpha virt. eigenvalues --    0.69584   0.69706   0.70136   0.70478   0.70783
 Alpha virt. eigenvalues --    0.70959   0.71162   0.71425   0.71606   0.71943
 Alpha virt. eigenvalues --    0.72118   0.72337   0.72854   0.73056   0.73200
 Alpha virt. eigenvalues --    0.73737   0.74371   0.74472   0.74510   0.75101
 Alpha virt. eigenvalues --    0.75271   0.75435   0.75907   0.76146   0.76470
 Alpha virt. eigenvalues --    0.76795   0.76909   0.77249   0.77630   0.77808
 Alpha virt. eigenvalues --    0.78209   0.78403   0.78578   0.78787   0.78939
 Alpha virt. eigenvalues --    0.79371   0.79556   0.79712   0.80164   0.80607
 Alpha virt. eigenvalues --    0.81503   0.81754   0.82179   0.82365   0.82481
 Alpha virt. eigenvalues --    0.82648   0.82928   0.83213   0.83472   0.83737
 Alpha virt. eigenvalues --    0.84023   0.84193   0.84445   0.84835   0.85503
 Alpha virt. eigenvalues --    0.85817   0.86133   0.86647   0.86686   0.87115
 Alpha virt. eigenvalues --    0.87406   0.87922   0.88022   0.88396   0.88807
 Alpha virt. eigenvalues --    0.89162   0.89634   0.89859   0.90081   0.90777
 Alpha virt. eigenvalues --    0.91200   0.91644   0.92108   0.92339   0.92498
 Alpha virt. eigenvalues --    0.93192   0.93333   0.93816   0.93971   0.94100
 Alpha virt. eigenvalues --    0.94407   0.94546   0.94961   0.95432   0.95954
 Alpha virt. eigenvalues --    0.96254   0.96389   0.97101   0.97222   0.97325
 Alpha virt. eigenvalues --    0.97948   0.98069   0.98256   0.98732   0.98988
 Alpha virt. eigenvalues --    0.99220   0.99626   1.00022   1.00201   1.00415
 Alpha virt. eigenvalues --    1.00716   1.01272   1.01766   1.01957   1.02238
 Alpha virt. eigenvalues --    1.02331   1.02549   1.02847   1.03130   1.03333
 Alpha virt. eigenvalues --    1.03675   1.04181   1.04309   1.04460   1.04890
 Alpha virt. eigenvalues --    1.05012   1.05533   1.05728   1.06060   1.06307
 Alpha virt. eigenvalues --    1.06703   1.07056   1.07200   1.07759   1.07995
 Alpha virt. eigenvalues --    1.08412   1.08629   1.08976   1.09212   1.09895
 Alpha virt. eigenvalues --    1.10176   1.10313   1.10669   1.10915   1.11004
 Alpha virt. eigenvalues --    1.11455   1.11765   1.12511   1.12605   1.13135
 Alpha virt. eigenvalues --    1.13235   1.13505   1.14016   1.14164   1.14650
 Alpha virt. eigenvalues --    1.15037   1.15097   1.15771   1.15900   1.16463
 Alpha virt. eigenvalues --    1.16692   1.17140   1.17569   1.17890   1.18624
 Alpha virt. eigenvalues --    1.19005   1.19304   1.19777   1.19831   1.20220
 Alpha virt. eigenvalues --    1.20700   1.21566   1.21663   1.21935   1.23039
 Alpha virt. eigenvalues --    1.23079   1.23692   1.23812   1.24211   1.24663
 Alpha virt. eigenvalues --    1.25090   1.25204   1.25312   1.26263   1.26459
 Alpha virt. eigenvalues --    1.26798   1.27067   1.27198   1.27626   1.28400
 Alpha virt. eigenvalues --    1.28741   1.29001   1.29299   1.29844   1.30157
 Alpha virt. eigenvalues --    1.30645   1.30728   1.31241   1.31757   1.31976
 Alpha virt. eigenvalues --    1.32191   1.32785   1.33648   1.33906   1.34221
 Alpha virt. eigenvalues --    1.34476   1.34972   1.35248   1.35695   1.36197
 Alpha virt. eigenvalues --    1.36695   1.36997   1.37327   1.37545   1.38053
 Alpha virt. eigenvalues --    1.38587   1.39286   1.39552   1.40014   1.40199
 Alpha virt. eigenvalues --    1.40447   1.41556   1.41854   1.42047   1.42867
 Alpha virt. eigenvalues --    1.43161   1.43459   1.43800   1.44229   1.44767
 Alpha virt. eigenvalues --    1.45142   1.45164   1.45367   1.46242   1.46542
 Alpha virt. eigenvalues --    1.46666   1.46928   1.47287   1.48098   1.48257
 Alpha virt. eigenvalues --    1.48409   1.48649   1.49055   1.49274   1.49332
 Alpha virt. eigenvalues --    1.49835   1.50033   1.50354   1.50774   1.50950
 Alpha virt. eigenvalues --    1.51180   1.51684   1.51957   1.52306   1.52582
 Alpha virt. eigenvalues --    1.52750   1.53128   1.53352   1.53665   1.54239
 Alpha virt. eigenvalues --    1.54337   1.54667   1.54981   1.55104   1.55695
 Alpha virt. eigenvalues --    1.55817   1.56221   1.56259   1.56690   1.57024
 Alpha virt. eigenvalues --    1.57094   1.58087   1.58236   1.58537   1.58647
 Alpha virt. eigenvalues --    1.59113   1.59371   1.59586   1.59869   1.60074
 Alpha virt. eigenvalues --    1.60425   1.60523   1.60703   1.60941   1.61149
 Alpha virt. eigenvalues --    1.61609   1.61741   1.61972   1.62215   1.62386
 Alpha virt. eigenvalues --    1.62897   1.63102   1.63473   1.63651   1.64147
 Alpha virt. eigenvalues --    1.64234   1.64611   1.64664   1.64800   1.65313
 Alpha virt. eigenvalues --    1.65794   1.65886   1.66255   1.66637   1.67060
 Alpha virt. eigenvalues --    1.67322   1.67638   1.68112   1.68241   1.69229
 Alpha virt. eigenvalues --    1.69308   1.69651   1.69802   1.70340   1.70577
 Alpha virt. eigenvalues --    1.70910   1.71004   1.71560   1.71940   1.72165
 Alpha virt. eigenvalues --    1.72399   1.72953   1.73092   1.73820   1.74271
 Alpha virt. eigenvalues --    1.74356   1.74869   1.75378   1.75437   1.75789
 Alpha virt. eigenvalues --    1.75947   1.76312   1.77430   1.77705   1.78252
 Alpha virt. eigenvalues --    1.78458   1.78621   1.79357   1.79559   1.79917
 Alpha virt. eigenvalues --    1.80387   1.80847   1.81355   1.81647   1.81854
 Alpha virt. eigenvalues --    1.82229   1.83021   1.83307   1.83814   1.83902
 Alpha virt. eigenvalues --    1.84360   1.84599   1.84926   1.85452   1.85597
 Alpha virt. eigenvalues --    1.86513   1.86746   1.86918   1.87784   1.87881
 Alpha virt. eigenvalues --    1.88321   1.88497   1.89193   1.89333   1.89627
 Alpha virt. eigenvalues --    1.90186   1.90540   1.90816   1.91175   1.91577
 Alpha virt. eigenvalues --    1.91630   1.92284   1.92824   1.93443   1.93649
 Alpha virt. eigenvalues --    1.94019   1.94285   1.94543   1.94830   1.95275
 Alpha virt. eigenvalues --    1.95405   1.95699   1.96439   1.96580   1.96747
 Alpha virt. eigenvalues --    1.97415   1.97862   1.98030   1.98176   1.98432
 Alpha virt. eigenvalues --    1.98730   1.99181   1.99563   2.00250   2.00582
 Alpha virt. eigenvalues --    2.00718   2.00998   2.01634   2.01783   2.02090
 Alpha virt. eigenvalues --    2.03084   2.03671   2.03959   2.04194   2.04455
 Alpha virt. eigenvalues --    2.04722   2.05007   2.05617   2.05812   2.06399
 Alpha virt. eigenvalues --    2.06733   2.06871   2.07465   2.07627   2.07721
 Alpha virt. eigenvalues --    2.08360   2.08528   2.09017   2.09593   2.09702
 Alpha virt. eigenvalues --    2.10132   2.10974   2.11430   2.12053   2.12521
 Alpha virt. eigenvalues --    2.13196   2.13515   2.13608   2.14809   2.14951
 Alpha virt. eigenvalues --    2.15271   2.15578   2.15732   2.16276   2.16489
 Alpha virt. eigenvalues --    2.17073   2.17543   2.17695   2.17856   2.18508
 Alpha virt. eigenvalues --    2.19004   2.19283   2.19378   2.19925   2.20043
 Alpha virt. eigenvalues --    2.20680   2.21209   2.21309   2.22059   2.22521
 Alpha virt. eigenvalues --    2.23065   2.23504   2.24063   2.24127   2.24820
 Alpha virt. eigenvalues --    2.25553   2.25862   2.25971   2.26930   2.27173
 Alpha virt. eigenvalues --    2.27813   2.28012   2.28218   2.28586   2.29408
 Alpha virt. eigenvalues --    2.29827   2.30256   2.30694   2.31126   2.31375
 Alpha virt. eigenvalues --    2.32529   2.32683   2.32739   2.33189   2.33492
 Alpha virt. eigenvalues --    2.33869   2.34299   2.34658   2.35263   2.35471
 Alpha virt. eigenvalues --    2.35974   2.36541   2.36726   2.37144   2.37273
 Alpha virt. eigenvalues --    2.37512   2.37827   2.38499   2.39016   2.39240
 Alpha virt. eigenvalues --    2.39590   2.39966   2.40407   2.41150   2.41425
 Alpha virt. eigenvalues --    2.41876   2.42107   2.42812   2.43204   2.43365
 Alpha virt. eigenvalues --    2.43782   2.44214   2.44610   2.44921   2.45062
 Alpha virt. eigenvalues --    2.45752   2.46206   2.46579   2.47137   2.47249
 Alpha virt. eigenvalues --    2.48175   2.48471   2.48975   2.49453   2.49641
 Alpha virt. eigenvalues --    2.50438   2.50916   2.51320   2.51675   2.52303
 Alpha virt. eigenvalues --    2.52701   2.52937   2.53024   2.53210   2.53756
 Alpha virt. eigenvalues --    2.54322   2.54585   2.54805   2.55522   2.55925
 Alpha virt. eigenvalues --    2.56209   2.56401   2.56684   2.57143   2.57293
 Alpha virt. eigenvalues --    2.57504   2.57937   2.58533   2.58759   2.59030
 Alpha virt. eigenvalues --    2.59650   2.59762   2.60045   2.60416   2.60988
 Alpha virt. eigenvalues --    2.61019   2.61500   2.61700   2.62163   2.62439
 Alpha virt. eigenvalues --    2.62736   2.63343   2.63454   2.63694   2.64169
 Alpha virt. eigenvalues --    2.64417   2.64603   2.65098   2.65598   2.65776
 Alpha virt. eigenvalues --    2.66095   2.66524   2.66944   2.67333   2.67636
 Alpha virt. eigenvalues --    2.67780   2.68144   2.68193   2.68459   2.68783
 Alpha virt. eigenvalues --    2.69164   2.69520   2.70434   2.70596   2.70935
 Alpha virt. eigenvalues --    2.71486   2.71853   2.72115   2.72304   2.72897
 Alpha virt. eigenvalues --    2.73195   2.73704   2.73946   2.74151   2.74644
 Alpha virt. eigenvalues --    2.74848   2.75143   2.75253   2.75790   2.76205
 Alpha virt. eigenvalues --    2.76660   2.77099   2.77519   2.77564   2.77970
 Alpha virt. eigenvalues --    2.78763   2.79268   2.79573   2.79812   2.80156
 Alpha virt. eigenvalues --    2.80244   2.81249   2.81419   2.81973   2.82371
 Alpha virt. eigenvalues --    2.82480   2.82595   2.82965   2.83300   2.83371
 Alpha virt. eigenvalues --    2.84034   2.84594   2.84763   2.85122   2.85559
 Alpha virt. eigenvalues --    2.86068   2.86416   2.86746   2.86993   2.87423
 Alpha virt. eigenvalues --    2.87848   2.88108   2.88606   2.88690   2.89125
 Alpha virt. eigenvalues --    2.89565   2.90056   2.90338   2.90737   2.90959
 Alpha virt. eigenvalues --    2.91356   2.91728   2.91985   2.92055   2.92477
 Alpha virt. eigenvalues --    2.92808   2.93188   2.93758   2.93847   2.94012
 Alpha virt. eigenvalues --    2.94621   2.94647   2.94998   2.95083   2.95715
 Alpha virt. eigenvalues --    2.95985   2.96089   2.96470   2.96698   2.96958
 Alpha virt. eigenvalues --    2.97508   2.97727   2.98364   2.98656   2.98742
 Alpha virt. eigenvalues --    2.98987   2.99527   2.99600   2.99961   3.00343
 Alpha virt. eigenvalues --    3.00755   3.00973   3.01087   3.01588   3.01921
 Alpha virt. eigenvalues --    3.02663   3.03059   3.03468   3.03894   3.04310
 Alpha virt. eigenvalues --    3.04765   3.04836   3.05139   3.05344   3.05507
 Alpha virt. eigenvalues --    3.05901   3.06132   3.06712   3.06901   3.07246
 Alpha virt. eigenvalues --    3.07710   3.07877   3.08114   3.08423   3.08928
 Alpha virt. eigenvalues --    3.08992   3.09546   3.09674   3.10127   3.10360
 Alpha virt. eigenvalues --    3.10460   3.11009   3.11347   3.11673   3.11872
 Alpha virt. eigenvalues --    3.12063   3.12469   3.13014   3.13260   3.13472
 Alpha virt. eigenvalues --    3.14082   3.14224   3.14576   3.14824   3.14943
 Alpha virt. eigenvalues --    3.15171   3.15516   3.16079   3.16258   3.16560
 Alpha virt. eigenvalues --    3.16735   3.17093   3.17481   3.17847   3.18099
 Alpha virt. eigenvalues --    3.18350   3.18641   3.19086   3.19296   3.19473
 Alpha virt. eigenvalues --    3.20013   3.20160   3.20412   3.21013   3.21123
 Alpha virt. eigenvalues --    3.21584   3.21618   3.22007   3.22533   3.22864
 Alpha virt. eigenvalues --    3.23193   3.23321   3.23931   3.24202   3.24470
 Alpha virt. eigenvalues --    3.24734   3.24892   3.25545   3.25582   3.25737
 Alpha virt. eigenvalues --    3.26232   3.26648   3.26852   3.27030   3.27400
 Alpha virt. eigenvalues --    3.27515   3.27990   3.28140   3.28530   3.28882
 Alpha virt. eigenvalues --    3.28987   3.29115   3.29465   3.29820   3.30003
 Alpha virt. eigenvalues --    3.30500   3.30773   3.31304   3.31368   3.31942
 Alpha virt. eigenvalues --    3.32159   3.32630   3.32729   3.32951   3.33017
 Alpha virt. eigenvalues --    3.33049   3.33310   3.33735   3.34172   3.34291
 Alpha virt. eigenvalues --    3.34673   3.34976   3.35026   3.35362   3.35670
 Alpha virt. eigenvalues --    3.35792   3.36006   3.36363   3.36618   3.36912
 Alpha virt. eigenvalues --    3.37020   3.37120   3.37741   3.37871   3.38033
 Alpha virt. eigenvalues --    3.38188   3.38478   3.38603   3.38721   3.39145
 Alpha virt. eigenvalues --    3.39510   3.39748   3.39963   3.40118   3.40431
 Alpha virt. eigenvalues --    3.41020   3.41095   3.41611   3.41908   3.42325
 Alpha virt. eigenvalues --    3.42400   3.42703   3.43123   3.43604   3.43749
 Alpha virt. eigenvalues --    3.44287   3.44599   3.45202   3.45654   3.46053
 Alpha virt. eigenvalues --    3.46293   3.46845   3.46909   3.47193   3.47427
 Alpha virt. eigenvalues --    3.48025   3.48437   3.48542   3.49116   3.49554
 Alpha virt. eigenvalues --    3.49786   3.49956   3.50148   3.51044   3.51415
 Alpha virt. eigenvalues --    3.51625   3.52029   3.52289   3.52465   3.52756
 Alpha virt. eigenvalues --    3.53104   3.53316   3.53463   3.54147   3.54697
 Alpha virt. eigenvalues --    3.54995   3.55189   3.56200   3.56330   3.56903
 Alpha virt. eigenvalues --    3.56926   3.57518   3.57876   3.58425   3.58636
 Alpha virt. eigenvalues --    3.58915   3.59384   3.59685   3.60095   3.60196
 Alpha virt. eigenvalues --    3.60693   3.60999   3.61570   3.62328   3.62363
 Alpha virt. eigenvalues --    3.62616   3.62938   3.63636   3.63754   3.64366
 Alpha virt. eigenvalues --    3.64562   3.65323   3.65567   3.65745   3.66265
 Alpha virt. eigenvalues --    3.66480   3.66890   3.67183   3.68038   3.68119
 Alpha virt. eigenvalues --    3.68627   3.69200   3.69304   3.69444   3.69851
 Alpha virt. eigenvalues --    3.70244   3.70560   3.71132   3.71551   3.71642
 Alpha virt. eigenvalues --    3.72380   3.72777   3.73130   3.73237   3.73866
 Alpha virt. eigenvalues --    3.74011   3.74509   3.74667   3.75138   3.75631
 Alpha virt. eigenvalues --    3.75850   3.76133   3.76429   3.76743   3.77793
 Alpha virt. eigenvalues --    3.78076   3.78537   3.79267   3.79350   3.79743
 Alpha virt. eigenvalues --    3.80438   3.81201   3.81487   3.81972   3.82157
 Alpha virt. eigenvalues --    3.82582   3.82991   3.83415   3.84319   3.84595
 Alpha virt. eigenvalues --    3.84947   3.85668   3.85837   3.86383   3.86986
 Alpha virt. eigenvalues --    3.87543   3.87908   3.88504   3.88808   3.89579
 Alpha virt. eigenvalues --    3.90790   3.90968   3.91205   3.92121   3.93050
 Alpha virt. eigenvalues --    3.93497   3.94161   3.94416   3.95189   3.95678
 Alpha virt. eigenvalues --    3.95778   3.96704   3.97027   3.97458   3.97682
 Alpha virt. eigenvalues --    3.97804   3.98419   3.98893   4.00100   4.00411
 Alpha virt. eigenvalues --    4.00651   4.01420   4.01675   4.02050   4.02713
 Alpha virt. eigenvalues --    4.03415   4.03948   4.04743   4.04863   4.05197
 Alpha virt. eigenvalues --    4.06316   4.06963   4.07277   4.07979   4.08539
 Alpha virt. eigenvalues --    4.08701   4.09014   4.09649   4.09971   4.10524
 Alpha virt. eigenvalues --    4.10935   4.11763   4.12563   4.13330   4.13471
 Alpha virt. eigenvalues --    4.13558   4.14041   4.14534   4.15352   4.16170
 Alpha virt. eigenvalues --    4.16563   4.16664   4.17373   4.17479   4.18178
 Alpha virt. eigenvalues --    4.19096   4.19674   4.20249   4.20598   4.20672
 Alpha virt. eigenvalues --    4.21133   4.21470   4.22380   4.23489   4.23662
 Alpha virt. eigenvalues --    4.24074   4.24574   4.25134   4.25394   4.25571
 Alpha virt. eigenvalues --    4.26122   4.26346   4.26979   4.27861   4.28053
 Alpha virt. eigenvalues --    4.28551   4.28996   4.29007   4.29459   4.29624
 Alpha virt. eigenvalues --    4.30429   4.31198   4.32075   4.32774   4.33120
 Alpha virt. eigenvalues --    4.34032   4.34421   4.34740   4.35999   4.37904
 Alpha virt. eigenvalues --    4.38383   4.39231   4.39433   4.39841   4.40835
 Alpha virt. eigenvalues --    4.41656   4.42221   4.42552   4.42938   4.43571
 Alpha virt. eigenvalues --    4.43677   4.44707   4.45022   4.45265   4.46158
 Alpha virt. eigenvalues --    4.46259   4.46505   4.47002   4.48636   4.48877
 Alpha virt. eigenvalues --    4.49648   4.50328   4.51059   4.52114   4.52970
 Alpha virt. eigenvalues --    4.53557   4.53576   4.54453   4.55377   4.55734
 Alpha virt. eigenvalues --    4.56419   4.56751   4.58240   4.58704   4.59065
 Alpha virt. eigenvalues --    4.60052   4.60796   4.62242   4.62791   4.63640
 Alpha virt. eigenvalues --    4.64217   4.65386   4.66678   4.66994   4.67453
 Alpha virt. eigenvalues --    4.67698   4.68663   4.68893   4.69541   4.70656
 Alpha virt. eigenvalues --    4.71543   4.72029   4.72570   4.72862   4.73490
 Alpha virt. eigenvalues --    4.74339   4.74784   4.76318   4.76539   4.77029
 Alpha virt. eigenvalues --    4.78014   4.78206   4.78870   4.79351   4.79935
 Alpha virt. eigenvalues --    4.80181   4.81469   4.82917   4.83224   4.84223
 Alpha virt. eigenvalues --    4.84879   4.85230   4.85810   4.87843   4.88353
 Alpha virt. eigenvalues --    4.88862   4.90040   4.90781   4.91263   4.92288
 Alpha virt. eigenvalues --    4.93297   4.94292   4.95065   4.95961   4.96455
 Alpha virt. eigenvalues --    4.97059   4.97820   4.99155   4.99560   4.99663
 Alpha virt. eigenvalues --    5.01160   5.01622   5.02969   5.04355   5.05588
 Alpha virt. eigenvalues --    5.05834   5.06279   5.07229   5.08058   5.09000
 Alpha virt. eigenvalues --    5.10032   5.10059   5.10487   5.10931   5.12513
 Alpha virt. eigenvalues --    5.12758   5.13597   5.15593   5.16025   5.16417
 Alpha virt. eigenvalues --    5.17140   5.18655   5.19045   5.19669   5.19854
 Alpha virt. eigenvalues --    5.20912   5.21668   5.21815   5.21892   5.22162
 Alpha virt. eigenvalues --    5.22321   5.23933   5.24059   5.24353   5.24628
 Alpha virt. eigenvalues --    5.25633   5.26209   5.26888   5.27999   5.28491
 Alpha virt. eigenvalues --    5.29832   5.31976   5.32701   5.33653   5.34482
 Alpha virt. eigenvalues --    5.37911   5.38357   5.39098   5.40143   5.41047
 Alpha virt. eigenvalues --    5.42199   5.42671   5.43034   5.43756   5.44033
 Alpha virt. eigenvalues --    5.45571   5.46324   5.47432   5.47739   5.48852
 Alpha virt. eigenvalues --    5.49939   5.50363   5.51649   5.52672   5.53889
 Alpha virt. eigenvalues --    5.54362   5.55340   5.56545   5.57627   5.58683
 Alpha virt. eigenvalues --    5.59060   5.59482   5.60813   5.61725   5.63556
 Alpha virt. eigenvalues --    5.63908   5.64261   5.65430   5.66906   5.68692
 Alpha virt. eigenvalues --    5.69379   5.69837   5.70384   5.70635   5.72365
 Alpha virt. eigenvalues --    5.73685   5.75656   5.76851   5.80271   5.81240
 Alpha virt. eigenvalues --    5.82297   5.84513   5.85567   5.86019   5.89209
 Alpha virt. eigenvalues --    5.90205   5.91226   5.92054   5.97281   5.98977
 Alpha virt. eigenvalues --    5.99657   6.02476   6.04880   6.05528   6.06445
 Alpha virt. eigenvalues --    6.11581   6.12909   6.14446   6.15521   6.15886
 Alpha virt. eigenvalues --    6.17462   6.19026   6.22110   6.24525   6.24657
 Alpha virt. eigenvalues --    6.25877   6.27741   6.34341   6.34396   6.40419
 Alpha virt. eigenvalues --    6.41389   6.42509   6.43756   6.44684   6.46445
 Alpha virt. eigenvalues --    6.47416   6.48623   6.48971   6.51847   6.52698
 Alpha virt. eigenvalues --    6.52785   6.54640   6.59010   6.67100   6.67644
 Alpha virt. eigenvalues --    6.75295   6.79583   6.81520   6.85722   6.87415
 Alpha virt. eigenvalues --    6.97172   6.97905   7.04642   7.07326   7.12421
 Alpha virt. eigenvalues --    7.16166   7.17074   7.18031   7.19184   7.20898
 Alpha virt. eigenvalues --    7.28153   7.29095  22.37485  22.38110  22.52223
 Alpha virt. eigenvalues --   22.52790  22.53615  22.54463  22.63117  22.67452
 Alpha virt. eigenvalues --   22.68446  22.73013  22.75193  22.81226  22.84801
 Alpha virt. eigenvalues --   22.97875  22.98560  23.01918  23.03287  23.07096
 Alpha virt. eigenvalues --   23.08930  23.11913  23.13019  23.18046  23.20900
 Alpha virt. eigenvalues --   23.39052  23.40300  23.45806  23.46645  23.48846
 Alpha virt. eigenvalues --   23.56195  23.59309  23.61279  23.69383  23.73656
 Alpha virt. eigenvalues --   23.83210  23.96242  23.98835  24.08914  32.45473
 Alpha virt. eigenvalues --   32.72490  32.98490  33.02800  33.11725  33.17152
 Alpha virt. eigenvalues --   43.95099  43.97598  43.99630  44.00913  44.19877
  Beta  occ. eigenvalues -- -256.42677 -30.16976 -26.00484 -26.00140 -25.99289
  Beta  occ. eigenvalues --  -19.25841 -19.25017 -19.22565 -19.17932 -19.16747
  Beta  occ. eigenvalues --  -14.48015 -14.41474 -14.38453 -14.38345 -14.37541
  Beta  occ. eigenvalues --  -14.37179 -10.34897 -10.34068 -10.30625 -10.27494
  Beta  occ. eigenvalues --  -10.26229 -10.24799 -10.24454 -10.24269 -10.24231
  Beta  occ. eigenvalues --  -10.24165 -10.24159 -10.24001 -10.23662 -10.23111
  Beta  occ. eigenvalues --  -10.23020 -10.22729 -10.22641 -10.22597 -10.22588
  Beta  occ. eigenvalues --  -10.22561 -10.22526 -10.22289 -10.22283 -10.22174
  Beta  occ. eigenvalues --  -10.22074 -10.22026 -10.21937 -10.21781 -10.21707
  Beta  occ. eigenvalues --  -10.21703 -10.21684 -10.21106 -10.21010 -10.20976
  Beta  occ. eigenvalues --  -10.20427 -10.20253 -10.19718  -3.47636  -2.23860
  Beta  occ. eigenvalues --   -2.23242  -2.19976  -1.18190  -1.16953  -1.12930
  Beta  occ. eigenvalues --   -1.07770  -1.03779  -1.02300  -1.01286  -1.00687
  Beta  occ. eigenvalues --   -0.99902  -0.99420  -0.96774  -0.84468  -0.83936
  Beta  occ. eigenvalues --   -0.83563  -0.82890  -0.82542  -0.81898  -0.81842
  Beta  occ. eigenvalues --   -0.81325  -0.79767  -0.78941  -0.77077  -0.75401
  Beta  occ. eigenvalues --   -0.75109  -0.74005  -0.73001  -0.72068  -0.71447
  Beta  occ. eigenvalues --   -0.70536  -0.70171  -0.69882  -0.69053  -0.67161
  Beta  occ. eigenvalues --   -0.67061  -0.66665  -0.65887  -0.65785  -0.62931
  Beta  occ. eigenvalues --   -0.62664  -0.62130  -0.60358  -0.59110  -0.58910
  Beta  occ. eigenvalues --   -0.57357  -0.56105  -0.54895  -0.54097  -0.53207
  Beta  occ. eigenvalues --   -0.53031  -0.52890  -0.52720  -0.52547  -0.51912
  Beta  occ. eigenvalues --   -0.51647  -0.50965  -0.50548  -0.49648  -0.49426
  Beta  occ. eigenvalues --   -0.49170  -0.49070  -0.48751  -0.48587  -0.47609
  Beta  occ. eigenvalues --   -0.46892  -0.46238  -0.45991  -0.45486  -0.45455
  Beta  occ. eigenvalues --   -0.45028  -0.44811  -0.44548  -0.44288  -0.43972
  Beta  occ. eigenvalues --   -0.43793  -0.43603  -0.43084  -0.42677  -0.42409
  Beta  occ. eigenvalues --   -0.42210  -0.41897  -0.41606  -0.41336  -0.40937
  Beta  occ. eigenvalues --   -0.40739  -0.40709  -0.40099  -0.39957  -0.39476
  Beta  occ. eigenvalues --   -0.39321  -0.38894  -0.38728  -0.38493  -0.38228
  Beta  occ. eigenvalues --   -0.37875  -0.37689  -0.37364  -0.37070  -0.36981
  Beta  occ. eigenvalues --   -0.36835  -0.36625  -0.36211  -0.35905  -0.35775
  Beta  occ. eigenvalues --   -0.35069  -0.34182  -0.33645  -0.33079  -0.32977
  Beta  occ. eigenvalues --   -0.32476  -0.32102  -0.31819  -0.30408  -0.29753
  Beta  occ. eigenvalues --   -0.28385  -0.28083  -0.27964  -0.27558  -0.27158
  Beta  occ. eigenvalues --   -0.26927  -0.24171  -0.24012  -0.21917  -0.20624
  Beta  occ. eigenvalues --   -0.19053  -0.18008
  Beta virt. eigenvalues --   -0.09907  -0.08611  -0.06720  -0.06026  -0.03781
  Beta virt. eigenvalues --   -0.02648  -0.01791  -0.01559  -0.01433   0.00125
  Beta virt. eigenvalues --    0.00252   0.01013   0.01720   0.02487   0.02982
  Beta virt. eigenvalues --    0.03583   0.03761   0.04405   0.04743   0.05775
  Beta virt. eigenvalues --    0.05945   0.06152   0.06540   0.06954   0.07276
  Beta virt. eigenvalues --    0.07823   0.07987   0.08204   0.08393   0.08781
  Beta virt. eigenvalues --    0.09140   0.09324   0.09583   0.09721   0.10343
  Beta virt. eigenvalues --    0.10682   0.11085   0.11316   0.11685   0.12009
  Beta virt. eigenvalues --    0.12229   0.12320   0.12785   0.13008   0.13186
  Beta virt. eigenvalues --    0.13336   0.13655   0.13790   0.13964   0.14400
  Beta virt. eigenvalues --    0.14635   0.14761   0.14949   0.15178   0.15232
  Beta virt. eigenvalues --    0.15931   0.16014   0.16235   0.16374   0.16700
  Beta virt. eigenvalues --    0.16838   0.17075   0.17218   0.17384   0.17873
  Beta virt. eigenvalues --    0.18030   0.18106   0.18311   0.18644   0.18735
  Beta virt. eigenvalues --    0.19116   0.19471   0.19758   0.19862   0.20065
  Beta virt. eigenvalues --    0.20379   0.20576   0.20959   0.21066   0.21310
  Beta virt. eigenvalues --    0.21770   0.21858   0.22182   0.22311   0.22685
  Beta virt. eigenvalues --    0.22920   0.23037   0.23180   0.23243   0.23364
  Beta virt. eigenvalues --    0.23604   0.23735   0.24018   0.24317   0.24489
  Beta virt. eigenvalues --    0.24814   0.25026   0.25380   0.25724   0.26183
  Beta virt. eigenvalues --    0.26420   0.26669   0.26878   0.27105   0.27198
  Beta virt. eigenvalues --    0.27425   0.27622   0.27848   0.27936   0.28355
  Beta virt. eigenvalues --    0.28399   0.28925   0.29030   0.29353   0.29459
  Beta virt. eigenvalues --    0.29623   0.30058   0.30230   0.30569   0.30626
  Beta virt. eigenvalues --    0.30963   0.31084   0.31231   0.31448   0.31720
  Beta virt. eigenvalues --    0.32181   0.32435   0.32574   0.33060   0.33357
  Beta virt. eigenvalues --    0.33541   0.33612   0.34066   0.34140   0.34571
  Beta virt. eigenvalues --    0.34918   0.35037   0.35262   0.35380   0.35583
  Beta virt. eigenvalues --    0.35989   0.36527   0.36667   0.36726   0.37107
  Beta virt. eigenvalues --    0.37409   0.37472   0.37810   0.38034   0.38164
  Beta virt. eigenvalues --    0.38431   0.38656   0.38688   0.39055   0.39134
  Beta virt. eigenvalues --    0.39283   0.39355   0.39574   0.39801   0.40074
  Beta virt. eigenvalues --    0.40304   0.40381   0.40824   0.40881   0.40998
  Beta virt. eigenvalues --    0.41472   0.41559   0.41679   0.41993   0.42308
  Beta virt. eigenvalues --    0.42561   0.42785   0.43013   0.43089   0.43261
  Beta virt. eigenvalues --    0.43446   0.43635   0.43943   0.44252   0.44349
  Beta virt. eigenvalues --    0.44586   0.45019   0.45060   0.45177   0.45306
  Beta virt. eigenvalues --    0.45408   0.45759   0.45792   0.45934   0.46111
  Beta virt. eigenvalues --    0.46425   0.46625   0.46836   0.47078   0.47295
  Beta virt. eigenvalues --    0.47398   0.47495   0.47927   0.48228   0.48421
  Beta virt. eigenvalues --    0.48673   0.48894   0.48996   0.49112   0.49399
  Beta virt. eigenvalues --    0.49559   0.49788   0.49822   0.50024   0.50203
  Beta virt. eigenvalues --    0.50337   0.50640   0.50824   0.50957   0.51165
  Beta virt. eigenvalues --    0.51379   0.51548   0.51891   0.51940   0.52163
  Beta virt. eigenvalues --    0.52476   0.52571   0.52796   0.52964   0.53090
  Beta virt. eigenvalues --    0.53187   0.53414   0.53646   0.53985   0.54098
  Beta virt. eigenvalues --    0.54314   0.54670   0.54876   0.55058   0.55407
  Beta virt. eigenvalues --    0.55542   0.55916   0.56295   0.56380   0.56644
  Beta virt. eigenvalues --    0.56671   0.56885   0.57263   0.57406   0.57662
  Beta virt. eigenvalues --    0.58180   0.58637   0.58875   0.58999   0.59201
  Beta virt. eigenvalues --    0.59472   0.59548   0.59968   0.59990   0.60461
  Beta virt. eigenvalues --    0.60811   0.61081   0.61431   0.61511   0.61879
  Beta virt. eigenvalues --    0.62153   0.62465   0.62581   0.62779   0.63115
  Beta virt. eigenvalues --    0.63305   0.63571   0.63917   0.64113   0.64572
  Beta virt. eigenvalues --    0.64640   0.64879   0.65353   0.65610   0.65807
  Beta virt. eigenvalues --    0.66141   0.66318   0.66672   0.66864   0.67019
  Beta virt. eigenvalues --    0.67379   0.67621   0.67834   0.68155   0.68271
  Beta virt. eigenvalues --    0.68409   0.68787   0.69163   0.69454   0.69700
  Beta virt. eigenvalues --    0.69867   0.70261   0.70600   0.70976   0.71156
  Beta virt. eigenvalues --    0.71301   0.71547   0.71714   0.72122   0.72279
  Beta virt. eigenvalues --    0.72470   0.73010   0.73171   0.73295   0.73828
  Beta virt. eigenvalues --    0.74452   0.74597   0.74635   0.75230   0.75406
  Beta virt. eigenvalues --    0.75538   0.76047   0.76256   0.76598   0.76932
  Beta virt. eigenvalues --    0.77115   0.77420   0.77716   0.77897   0.78399
  Beta virt. eigenvalues --    0.78532   0.78762   0.78912   0.79032   0.79482
  Beta virt. eigenvalues --    0.79673   0.79841   0.80288   0.80728   0.81626
  Beta virt. eigenvalues --    0.81848   0.82281   0.82482   0.82609   0.82742
  Beta virt. eigenvalues --    0.83123   0.83362   0.83691   0.83896   0.84142
  Beta virt. eigenvalues --    0.84380   0.84604   0.84996   0.85652   0.85952
  Beta virt. eigenvalues --    0.86274   0.86823   0.86880   0.87253   0.87570
  Beta virt. eigenvalues --    0.88063   0.88184   0.88533   0.89018   0.89470
  Beta virt. eigenvalues --    0.89801   0.90126   0.90200   0.90914   0.91347
  Beta virt. eigenvalues --    0.91853   0.92243   0.92522   0.92686   0.93398
  Beta virt. eigenvalues --    0.93461   0.94017   0.94106   0.94273   0.94592
  Beta virt. eigenvalues --    0.94703   0.95120   0.95562   0.96064   0.96453
  Beta virt. eigenvalues --    0.96491   0.97266   0.97384   0.97692   0.98075
  Beta virt. eigenvalues --    0.98254   0.98509   0.98850   0.99182   0.99344
  Beta virt. eigenvalues --    0.99886   1.00278   1.00455   1.00643   1.01018
  Beta virt. eigenvalues --    1.01392   1.01917   1.02126   1.02507   1.02712
  Beta virt. eigenvalues --    1.02868   1.03071   1.03436   1.03459   1.03964
  Beta virt. eigenvalues --    1.04401   1.04513   1.04626   1.05078   1.05306
  Beta virt. eigenvalues --    1.05790   1.05856   1.06284   1.06600   1.06952
  Beta virt. eigenvalues --    1.07204   1.07567   1.07892   1.08435   1.08646
  Beta virt. eigenvalues --    1.08818   1.09220   1.09645   1.10083   1.10325
  Beta virt. eigenvalues --    1.10615   1.11041   1.11114   1.11219   1.11821
  Beta virt. eigenvalues --    1.12093   1.12666   1.12954   1.13388   1.13476
  Beta virt. eigenvalues --    1.13766   1.14191   1.14433   1.14895   1.15200
  Beta virt. eigenvalues --    1.15372   1.15924   1.16187   1.16615   1.16972
  Beta virt. eigenvalues --    1.17423   1.17805   1.18089   1.18791   1.19153
  Beta virt. eigenvalues --    1.19420   1.19902   1.20071   1.20390   1.20851
  Beta virt. eigenvalues --    1.21725   1.21956   1.22228   1.23148   1.23233
  Beta virt. eigenvalues --    1.23862   1.24038   1.24428   1.24868   1.25236
  Beta virt. eigenvalues --    1.25330   1.25593   1.26619   1.26716   1.27132
  Beta virt. eigenvalues --    1.27321   1.27619   1.27798   1.28494   1.28869
  Beta virt. eigenvalues --    1.29196   1.29610   1.29910   1.30281   1.30836
  Beta virt. eigenvalues --    1.31023   1.31404   1.31878   1.32089   1.32346
  Beta virt. eigenvalues --    1.32950   1.33938   1.34136   1.34368   1.34676
  Beta virt. eigenvalues --    1.35112   1.35443   1.35846   1.36402   1.36829
  Beta virt. eigenvalues --    1.37179   1.37501   1.37764   1.38157   1.38802
  Beta virt. eigenvalues --    1.39443   1.39712   1.40181   1.40439   1.40601
  Beta virt. eigenvalues --    1.41645   1.41993   1.42182   1.43171   1.43378
  Beta virt. eigenvalues --    1.43630   1.44018   1.44471   1.44920   1.45281
  Beta virt. eigenvalues --    1.45373   1.45585   1.46319   1.46745   1.46841
  Beta virt. eigenvalues --    1.47057   1.47615   1.48305   1.48513   1.48524
  Beta virt. eigenvalues --    1.48781   1.49313   1.49352   1.49444   1.49958
  Beta virt. eigenvalues --    1.50223   1.50512   1.51021   1.51168   1.51527
  Beta virt. eigenvalues --    1.51850   1.52145   1.52474   1.52774   1.52937
  Beta virt. eigenvalues --    1.53255   1.53581   1.53863   1.54428   1.54481
  Beta virt. eigenvalues --    1.54854   1.55244   1.55286   1.55826   1.56011
  Beta virt. eigenvalues --    1.56345   1.56425   1.56815   1.57166   1.57276
  Beta virt. eigenvalues --    1.58199   1.58341   1.58702   1.58743   1.59245
  Beta virt. eigenvalues --    1.59510   1.59726   1.60064   1.60180   1.60596
  Beta virt. eigenvalues --    1.60672   1.60879   1.61112   1.61293   1.61741
  Beta virt. eigenvalues --    1.61928   1.62253   1.62428   1.62662   1.63126
  Beta virt. eigenvalues --    1.63322   1.63743   1.63814   1.64306   1.64417
  Beta virt. eigenvalues --    1.64717   1.64810   1.65009   1.65458   1.65918
  Beta virt. eigenvalues --    1.65975   1.66382   1.66839   1.67201   1.67380
  Beta virt. eigenvalues --    1.67822   1.68229   1.68363   1.69354   1.69388
  Beta virt. eigenvalues --    1.69735   1.69992   1.70430   1.70695   1.71024
  Beta virt. eigenvalues --    1.71131   1.71615   1.72051   1.72214   1.72463
  Beta virt. eigenvalues --    1.73044   1.73225   1.73988   1.74380   1.74426
  Beta virt. eigenvalues --    1.75014   1.75468   1.75522   1.75963   1.76058
  Beta virt. eigenvalues --    1.76452   1.77533   1.77805   1.78328   1.78554
  Beta virt. eigenvalues --    1.78740   1.79412   1.79718   1.80004   1.80417
  Beta virt. eigenvalues --    1.80970   1.81437   1.81781   1.82138   1.82545
  Beta virt. eigenvalues --    1.83269   1.83461   1.83952   1.84234   1.84751
  Beta virt. eigenvalues --    1.84821   1.85268   1.85779   1.85952   1.86630
  Beta virt. eigenvalues --    1.86913   1.87149   1.87904   1.88038   1.88431
  Beta virt. eigenvalues --    1.88613   1.89277   1.89484   1.89689   1.90314
  Beta virt. eigenvalues --    1.90814   1.90948   1.91295   1.91751   1.91807
  Beta virt. eigenvalues --    1.92589   1.93024   1.93780   1.93933   1.94246
  Beta virt. eigenvalues --    1.94427   1.94778   1.94955   1.95426   1.95627
  Beta virt. eigenvalues --    1.95855   1.96648   1.96739   1.96859   1.97537
  Beta virt. eigenvalues --    1.98060   1.98117   1.98320   1.98591   1.98893
  Beta virt. eigenvalues --    1.99379   1.99711   2.00360   2.00714   2.00814
  Beta virt. eigenvalues --    2.01233   2.01863   2.01994   2.02150   2.03181
  Beta virt. eigenvalues --    2.03757   2.04119   2.04460   2.04646   2.04887
  Beta virt. eigenvalues --    2.05065   2.05789   2.05895   2.06694   2.06909
  Beta virt. eigenvalues --    2.07009   2.07611   2.07787   2.07928   2.08489
  Beta virt. eigenvalues --    2.08605   2.09180   2.09803   2.09831   2.10377
  Beta virt. eigenvalues --    2.11199   2.11595   2.12280   2.12652   2.13298
  Beta virt. eigenvalues --    2.13638   2.13860   2.14907   2.15034   2.15554
  Beta virt. eigenvalues --    2.15686   2.15824   2.16431   2.16704   2.17150
  Beta virt. eigenvalues --    2.17676   2.17841   2.18042   2.18640   2.19118
  Beta virt. eigenvalues --    2.19431   2.19497   2.20073   2.20209   2.20827
  Beta virt. eigenvalues --    2.21441   2.21489   2.22307   2.22596   2.23253
  Beta virt. eigenvalues --    2.23737   2.24216   2.24286   2.24991   2.25767
  Beta virt. eigenvalues --    2.26028   2.26201   2.27064   2.27380   2.27937
  Beta virt. eigenvalues --    2.28189   2.28360   2.28715   2.29520   2.30013
[...]
  1318. RY*(  13) N  44                  0.00000     4.69663   
  1319. RY*(  14) N  44                  0.00000     2.14788   
  1320. RY*(  15) N  44                  0.00001     1.98364   
  1321. RY*(  16) N  44                  0.00000     1.85471   
  1322. RY*(  17) N  44                  0.00000     4.55928   
  1323. RY*(  18) N  44                  0.00000    31.05598   
  1324. RY*(  19) N  44                  0.00000     2.48915   
  1325. RY*(  20) N  44                  0.00000     4.54419   
  1326. RY*(  21) N  44                  0.00000     4.69848   
  1327. RY*(  22) N  44                  0.00000     4.68270   
  1328. RY*(  23) N  44                  0.00000     4.50468   
  1329. RY*(  24) N  44                  0.00000     4.83167   
  1330. RY*(  25) N  44                  0.00000     4.49796   
  1331. RY*(  26) N  44                  0.00000     4.60942   
  1332. RY*(   1) C  45                  0.00231     1.53744   
  1333. RY*(   2) C  45                  0.00184     0.68859   
  1334. RY*(   3) C  45                  0.00142     1.66966   
  1335. RY*(   4) C  45                  0.00093     2.44716   
  1336. RY*(   5) C  45                  0.00060     1.67839   
  1337. RY*(   6) C  45                  0.00033     1.66585   
  1338. RY*(   7) C  45                  0.00014     1.86369   
  1339. RY*(   8) C  45                  0.00011     1.66231   
  1340. RY*(   9) C  45                  0.00009     1.48524   
  1341. RY*(  10) C  45                  0.00005     1.78935   
  1342. RY*(  11) C  45                  0.00005     2.61064   
  1343. RY*(  12) C  45                  0.00003     2.11393   
  1344. RY*(  13) C  45                  0.00002     2.56869   
  1345. RY*(  14) C  45                  0.00002     1.64365   
  1346. RY*(  15) C  45                  0.00001     3.42311   
  1347. RY*(  16) C  45                  0.00000    21.44373   
  1348. RY*(  17) C  45                  0.00000     3.49519   
  1349. RY*(  18) C  45                  0.00001     2.25250   
  1350. RY*(  19) C  45                  0.00000     3.23222   
  1351. RY*(  20) C  45                  0.00000     3.60891   
  1352. RY*(  21) C  45                  0.00000     3.53604   
  1353. RY*(  22) C  45                  0.00000     3.88240   
  1354. RY*(  23) C  45                  0.00000     3.58864   
  1355. RY*(  24) C  45                  0.00000     3.46947   
  1356. RY*(  25) C  45                  0.00000     3.25127   
  1357. RY*(  26) C  45                  0.00000     3.82055   
  1358. RY*(   1) N  46                  0.00402     1.27019   
  1359. RY*(   2) N  46                  0.00131     0.84779   
  1360. RY*(   3) N  46                  0.00109     1.15888   
  1361. RY*(   4) N  46                  0.00074     1.82118   
  1362. RY*(   5) N  46                  0.00034     2.55713   
  1363. RY*(   6) N  46                  0.00027     2.57232   
  1364. RY*(   7) N  46                  0.00023     3.25241   
  1365. RY*(   8) N  46                  0.00019     1.60144   
  1366. RY*(   9) N  46                  0.00007     3.40018   
  1367. RY*(  10) N  46                  0.00008     2.51186   
  1368. RY*(  11) N  46                  0.00006     2.29241   
  1369. RY*(  12) N  46                  0.00003     2.64764   
  1370. RY*(  13) N  46                  0.00001     3.42624   
  1371. RY*(  14) N  46                  0.00001     4.46265   
  1372. RY*(  15) N  46                  0.00001     4.51945   
  1373. RY*(  16) N  46                  0.00000     4.81431   
  1374. RY*(  17) N  46                  0.00001     4.07547   
  1375. RY*(  18) N  46                  0.00000    30.78622   
  1376. RY*(  19) N  46                  0.00001     4.03142   
  1377. RY*(  20) N  46                  0.00000     4.44657   
  1378. RY*(  21) N  46                  0.00000     4.34453   
  1379. RY*(  22) N  46                  0.00001     4.66451   
  1380. RY*(  23) N  46                  0.00000     4.74853   
  1381. RY*(  24) N  46                  0.00000     4.70884   
  1382. RY*(  25) N  46                  0.00000     4.62201   
  1383. RY*(  26) N  46                  0.00000     4.70758   
  1384. RY*(   1) C  47                  0.00281     0.84425   
  1385. RY*(   2) C  47                  0.00187     1.58792   
  1386. RY*(   3) C  47                  0.00118     1.66341   
  1387. RY*(   4) C  47                  0.00032     1.94346   
  1388. RY*(   5) C  47                  0.00021     1.66943   
  1389. RY*(   6) C  47                  0.00020     2.56198   
  1390. RY*(   7) C  47                  0.00011     2.08531   
  1391. RY*(   8) C  47                  0.00008     1.80852   
  1392. RY*(   9) C  47                  0.00006     2.20313   
  1393. RY*(  10) C  47                  0.00005     2.14067   
  1394. RY*(  11) C  47                  0.00003     3.13832   
  1395. RY*(  12) C  47                  0.00003     1.90540   
  1396. RY*(  13) C  47                  0.00002     1.51925   
  1397. RY*(  14) C  47                  0.00003     1.66193   
  1398. RY*(  15) C  47                  0.00001     1.33489   
  1399. RY*(  16) C  47                  0.00000     1.55376   
  1400. RY*(  17) C  47                  0.00000     3.76471   
  1401. RY*(  18) C  47                  0.00000     3.28366   
  1402. RY*(  19) C  47                  0.00000    21.54931   
  1403. RY*(  20) C  47                  0.00000     3.51266   
  1404. RY*(  21) C  47                  0.00000     3.73806   
  1405. RY*(  22) C  47                  0.00000     3.69119   
  1406. RY*(  23) C  47                  0.00000     3.52559   
  1407. RY*(  24) C  47                  0.00000     3.52804   
  1408. RY*(  25) C  47                  0.00000     3.60340   
  1409. RY*(  26) C  47                  0.00000     3.49185   
  1410. RY*(   1) C  48                  0.00143     1.56016   
  1411. RY*(   2) C  48                  0.00132     1.01310   
  1412. RY*(   3) C  48                  0.00091     1.26214   
  1413. RY*(   4) C  48                  0.00032     1.87792   
  1414. RY*(   5) C  48                  0.00025     1.47263   
  1415. RY*(   6) C  48                  0.00007     3.45119   
  1416. RY*(   7) C  48                  0.00003     2.39720   
  1417. RY*(   8) C  48                  0.00000     1.80439   
  1418. RY*(   9) C  48                  0.00001     1.73858   
  1419. RY*(  10) C  48                  0.00000    20.08480   
  1420. RY*(  11) C  48                  0.00000     2.29345   
  1421. RY*(  12) C  48                  0.00000     2.72250   
  1422. RY*(  13) C  48                  0.00000     2.41434   
  1423. RY*(  14) C  48                  0.00001     3.33806   
  1424. RY*(  15) C  48                  0.00000     2.70445   
  1425. RY*(  16) C  48                  0.00000     3.86834   
  1426. RY*(  17) C  48                  0.00001     1.73775   
  1427. RY*(  18) C  48                  0.00000     3.02988   
  1428. RY*(  19) C  48                  0.00000     2.82536   
  1429. RY*(  20) C  48                  0.00000     3.51574   
  1430. RY*(  21) C  48                  0.00000     3.56458   
  1431. RY*(  22) C  48                  0.00001     3.71391   
  1432. RY*(  23) C  48                  0.00000     3.64679   
  1433. RY*(  24) C  48                  0.00000     3.37304   
  1434. RY*(  25) C  48                  0.00000     3.45003   
  1435. RY*(  26) C  48                  0.00000     3.48853   
  1436. RY*(   1) H  49                  0.00025     2.17737   
  1437. RY*(   2) H  49                  0.00018     2.14092   
  1438. RY*(   3) H  49                  0.00009     1.01604   
  1439. RY*(   4) H  49                  0.00009     2.75774   
  1440. RY*(   5) H  49                  0.00000     3.05120   
  1467. RY*(   1) H  51                  0.00012     1.83873   
  1468. RY*(   2) H  51                  0.00012     1.98139   
  1469. RY*(   3) H  51                  0.00008     1.10474   
  1470. RY*(   4) H  51                  0.00003     2.00459   
  1471. RY*(   5) H  51                  0.00000     2.92458   
  1472. RY*(   1) H  52                  0.00025     1.63434   
  1473. RY*(   2) H  52                  0.00013     1.64186   
  1474. RY*(   3) H  52                  0.00011     2.03736   
  1475. RY*(   4) H  52                  0.00003     2.63467   
  1476. RY*(   5) H  52                  0.00000     3.08962   
  1477. RY*(   1) H  53                  0.00032     0.62981   
  1478. RY*(   2) H  53                  0.00017     2.37768   
  1479. RY*(   3) H  53                  0.00008     2.22262   
  1480. RY*(   4) H  53                  0.00002     2.56503   
  1481. RY*(   5) H  53                  0.00001     3.09334   
  1748. BD*(   1) N  44 - C  45          0.01167     0.50222   
  1749. BD*(   2) N  44 - C  45          0.29345    -0.06487  1755(v),1333(g),1335(g)
                                                    1308(g),181(r),183(r)
                                                    1690(r),180(r),1745(r)
  1750. BD*(   1) N  44 - C  48          0.00660     0.50301   
  1751. BD*(   1) N  44 - H  49          0.00827     0.41008   
  1752. BD*(   1) C  45 - N  46          0.00891     0.52454   
  1753. BD*(   1) C  45 - H  53          0.00783     0.36136   
  1754. BD*(   1) N  46 - C  47          0.00768     0.55804   
  1755. BD*(   2) N  46 - C  47          0.28616    -0.02113  1749(v),181(r),1384(g)
                                                    1359(g),180(r),183(r)
                                                    1413(v),1744(r),1747(r)
                                                    1690(r),174(r),1745(r)
  1756. BD*(   1) C  47 - C  48          0.00876     0.51979   
  1757. BD*(   1) C  47 - H  52          0.00775     0.40884   
  1758. BD*(   1) C  48 - H  51          0.00544     0.37604   
       -------------------------------
              Total Lewis   17.09239  ( 96.1389%)
        Valence non-Lewis    0.65253  (  3.6703%)
        Rydberg non-Lewis    0.03392  (  0.1908%)
       -------------------------------
            Total unit  2   17.77884  (100.0000%)
           Charge unit  2    0.22116

 Molecular unit  3  (H2O)
   108. BD (   1) O  50 - H  75          0.99499    -0.79327  182(r),180(r),183(r),1280(r)
                                                    1281(r),1282(r),181(r)
                                                    1286(r),1179(r),1361(r)
                                                    1359(r),1283(r),1177(r)
                                                    1183(r),1358(r),1180(r)
                                                    1253(r),1201(r)
   109. BD (   1) O  50 - H  76          0.95559    -0.83705  182(r),183(r),180(r),1747(r)
                                                    1745(r),1746(r),1177(r)
                                                    1281(r),1285(r),1202(r)
                                                    1204(r),1229(r),1176(r)
                                                    1690(r),1696(r),1178(r)
                                                    181(r),1358(r),1360(r)
                                                    1744(r),1228(r),1359(r)
                                                    1689(r),1175(r),1667(r)
                                                    1284(r),1279(r),1254(r)
                                                    1361(r),1255(r),1283(r)
                                                    1230(r),1674(r),1668(r)
   166. CR (   1) O  50                  0.99990   -18.99471  182(r),180(r),183(r),1592(v)
                                                    1589(v),1746(r),1283(r)
                                                    1747(r),181(r),1745(r)
                                                    1286(r)
   186. LP (   1) O  50                  0.97608    -0.46785  182(r),183(r),181(r),1744(r)
                                                    180(r),1746(r),1592(v)
                                                    1668(r),1281(r),1747(r)
                                                    1745(r),1361(r),1690(r)
                                                    1176(r),1707(r),1178(r)
                                                    1285(r),1229(r),1177(r)
                                                    1206(r),1233(r)
   187. LP (   2) O  50                  0.90062    -0.45607  182(r),180(r),183(r),1760(g)
                                                    1592(v),181(r),1589(v)
                                                    1594(v),1759(g),1280(r)
                                                    1254(r),1202(r),1284(r)
                                                    1229(r),1747(r),1230(r)
                                                    1177(r),1176(r),1178(r)
                                                    1228(r),1744(r),1287(r)
                                                    1745(r),1206(r),1204(r)
                                                    1367(r),1674(r),1723(r)
                                                    1209(r),1729(r),1256(r)
                                                    1706(r),1746(r),1667(r)
                                                    1361(r),1182(r),1713(r)
  1441. RY*(   1) O  50                  0.00074     1.07066   
  1442. RY*(   2) O  50                  0.00065     1.13347   
  1443. RY*(   3) O  50                  0.00030     1.23326   
  1444. RY*(   4) O  50                  0.00017     1.34352   
  1445. RY*(   5) O  50                  0.00010     1.93153   
  1446. RY*(   6) O  50                  0.00005     1.72095   
  1447. RY*(   7) O  50                  0.00003     4.86638   
  1448. RY*(   8) O  50                  0.00003     1.61519   
  1449. RY*(   9) O  50                  0.00004     1.93407   
  1450. RY*(  10) O  50                  0.00001     2.39112   
  1451. RY*(  11) O  50                  0.00000     6.43763   
  1452. RY*(  12) O  50                  0.00000     3.86765   
  1453. RY*(  13) O  50                  0.00000     6.33868   
  1454. RY*(  14) O  50                  0.00000     3.07946   
  1455. RY*(  15) O  50                  0.00000     6.44941   
  1456. RY*(  16) O  50                  0.00001     3.40858   
  1457. RY*(  17) O  50                  0.00000     6.24083   
  1458. RY*(  18) O  50                  0.00000    42.31914   
  1459. RY*(  19) O  50                  0.00000     6.41520   
  1460. RY*(  20) O  50                  0.00000     5.60840   
  1461. RY*(  21) O  50                  0.00000     5.48660   
  1462. RY*(  22) O  50                  0.00000     5.60706   
  1463. RY*(  23) O  50                  0.00000     5.25492   
  1464. RY*(  24) O  50                  0.00000     5.40059   
  1465. RY*(  25) O  50                  0.00000     5.32604   
  1466. RY*(  26) O  50                  0.00000     5.48308   
  1587. RY*(   1) H  75                  0.00047     0.77054   
  1588. RY*(   2) H  75                  0.00030     2.03689   
  1589. RY*(   3) H  75                  0.00022     2.27777   
  1590. RY*(   4) H  75                  0.00011     2.27699   
  1591. RY*(   5) H  75                  0.00001     3.52338   
  1592. RY*(   1) H  76                  0.00088     2.10554   
  1593. RY*(   2) H  76                  0.00023     2.50613   
  1594. RY*(   3) H  76                  0.00019     1.63792   
  1595. RY*(   4) H  76                  0.00010     3.00361   
  1596. RY*(   5) H  76                  0.00004     3.09545   
  1759. BD*(   1) O  50 - H  75          0.00323     0.43302   
  1760. BD*(   1) O  50 - H  76          0.02770     2.83645   
       -------------------------------
              Total Lewis    4.82719  ( 99.2676%)
        Valence non-Lewis    0.03092  (  0.6359%)
        Rydberg non-Lewis    0.00469  (  0.0965%)
       -------------------------------
            Total unit  3    4.86280  (100.0000%)
           Charge unit  3    0.13720
 1\1\GINC-NODE705\SP\UPBE1PBE\def2TZVP\C37H38Fe1N6O5(5)\ZHARTOVSKA\20-J
 an-2023\0\\# PBE1PBE/def2TZVP empiricaldispersion=GD3BJ int=(grid=ultr
 afine) geom=check pop=nbo\\1ccg_II_Q\\0,5\C,0,-5.506,53.923,112.93\C,0
 ,-7.562,57.972,114.377998\C,0,-5.926,60.125999,110.472\C,0,-3.654,56.1
 13998,109.164001\C,0,-6.228,54.827,113.697998\C,0,-6.758,54.532001,114
 .942001\C,0,-7.395,55.715,115.374001\C,0,-7.147,56.641998,114.369003\C
 ,0,-8.23,55.922001,116.644997\C,0,-6.626,53.173,115.640999\C,0,-5.472,
 53.012001,116.584\C,0,-5.394,51.617001,117.223999\O,0,-6.246,51.259998
 ,118.040001\O,0,-4.475,50.847,116.942001\C,0,-7.381,58.931999,113.3759
 99\C,0,-7.941,60.210999,113.411003\C,0,-7.522,60.812,112.232002\C,0,-6
 .685,59.879002,111.612\C,0,-8.919,60.678001,114.485001\C,0,-7.826,62.0
 55,111.651001\C,0,-8.743,63.063999,112.110001\C,0,-5.081,59.252998,109
 .775002\C,0,-4.298,59.622002,108.682999\C,0,-3.589,58.445999,108.36599
 7\C,0,-4.047,57.462002,109.228996\C,0,-4.188,61.047001,108.081001\C,0,
 -2.635,58.152,107.377998\C,0,-2.272,58.924,106.227997\C,0,-4.,55.08200
 1,110.014\C,0,-3.674,53.752998,109.834\C,0,-4.208,53.123001,110.963997
 \C,0,-4.83,54.109001,111.714996\C,0,-3.02,53.098999,108.612999\C,0,-4.
 19,51.630001,111.269997\C,0,-3.016,51.229,112.144997\C,0,-3.008,49.790
 001,112.600998\O,0,-2.443,49.528,113.656998\O,0,-3.547,48.922001,111.9
 17999\N,0,-6.462,56.099998,113.359001\N,0,-6.701,58.710999,112.254997\
 N,0,-4.921,57.955002,110.103996\N,0,-4.723,55.273998,111.115997\Fe,0,-
 5.857,56.937,111.602997\N,0,-9.264,56.771999,109.591003\C,0,-8.576,56.
 827999,110.692001\N,0,-7.374,56.400002,110.419998\C,0,-7.308,56.078999
 ,109.165001\C,0,-8.548,56.317001,108.603996\H,0,-10.166,57.108002,109.
 492996\O,0,-4.422,57.485001,112.862\H,0,-8.85064843,56.16247539,107.58
 938979\H,0,-6.44757431,55.69817754,108.65554772\H,0,-8.92966584,57.162
 93345,111.6447021\H,0,-8.47703616,61.47303368,115.04846439\H,0,-9.8181
 9471,61.02643021,114.02137835\H,0,-9.14761543,59.86203563,115.13832749
 \H,0,-8.42477212,64.08300091,112.18256908\H,0,-9.74325724,62.79545327,
 112.37882928\H,0,-7.30480636,62.28163653,110.74441781\H,0,-5.99760269,
 61.11670074,110.07415189\H,0,-3.29125105,61.12135216,107.50202499\H,0,
 -5.03415292,61.23551722,107.45379539\H,0,-4.16270198,61.7673059,108.87
 183655\H,0,-1.30666668,58.80008259,105.78338924\H,0,-2.9660696,59.6248
 1928,105.8132444\H,0,-2.10950113,57.22809341,107.5010734\H,0,-3.004931
 31,55.8547559,108.35381376\H,0,-2.07770052,52.67820197,108.89566761\H,
 0,-3.65773385,52.32595592,108.23803241\H,0,-2.86771719,53.83599136,107
 .8523728\H,0,-4.13470648,51.0890761,110.34845325\H,0,-5.09898196,51.36
 890342,111.77047662\H,0,-2.11413607,51.41183062,111.59899845\H,0,-3.01
 659566,51.85485271,113.01287259\H,0,-3.57066867,57.92866188,112.862\H,
 0,-5.12406459,58.13975691,112.862\H,0,-7.52743218,52.99509964,116.1893
 342\H,0,-6.54208858,52.42010505,114.88534824\H,0,-4.56411051,53.193467
 77,116.04761721\H,0,-5.56200633,53.74079509,117.36224034\H,0,-3.563329
 63,51.1294171,117.04543081\H,0,-7.6910114,56.54435544,117.32841945\H,0
 ,-9.15708263,56.39154393,116.39014951\H,0,-8.42404701,54.97441953,117.
 10252855\H,0,-5.45781913,52.93038165,113.32659478\H,0,-8.08069943,58.2
 9811494,115.25520946\H,0,-3.01035017,48.29644599,111.42577153\\Version
 =ES64L-G16RevA.03\State=5-A\HF=-3399.2813109\S2=6.25528\S2-1=0.\S2A=6.
 01749\RMSD=3.773e-09\Dipole=-0.7445312,0.2005051,-2.7078724\Quadrupole
 =24.6092174,-18.7146897,-5.8945278,-10.6852203,12.8051704,34.7912654\P
 G=C01 [X(C37H38Fe1N6O5)]\\@


 OPTIMIST - A PESSIMIST WHO LACKS EXPERIENCE
 Job cpu time:       4 days  0 hours 29 minutes 42.8 seconds.
 Elapsed time:       1 days  0 hours 12 minutes 34.9 seconds.
 File lengths (MBytes):  RWF=   2849 Int=      0 D2E=      0 Chk=    240 Scr=      1
 Normal termination of Gaussian 16 at Fri Jan 20 15:55:24 2023.
