 Entering Gaussian System, Link 0=g16
 Input=/net/homes/chemie/zhartovska/work/BioModel/Konrad/1cck/1cck12/1cck12.com
 Output=/net/homes/chemie/zhartovska/work/BioModel/Konrad/1cck/1cck12/1cck12.log
 Initial command:
 /afs/math/software/gaussian/g16.A03/g16/l1.exe "/scratch/zhartovska_gaussian.Cr60j8a/Gau-393.inp" -scrdir="/scratch/zhartovska_gaussian.Cr60j8a/"
 Entering Link 1 = /afs/math/software/gaussian/g16.A03/g16/l1.exe PID=       394.
  
 Copyright (c) 1988,1990,1992,1993,1995,1998,2003,2009,2016,
            Gaussian, Inc.  All Rights Reserved.
  
 This is part of the Gaussian(R) 16 program.  It is based on
 the Gaussian(R) 09 system (copyright 2009, Gaussian, Inc.),
 the Gaussian(R) 03 system (copyright 2003, Gaussian, Inc.),
 the Gaussian(R) 98 system (copyright 1998, Gaussian, Inc.),
 the Gaussian(R) 94 system (copyright 1995, Gaussian, Inc.),
 the Gaussian 92(TM) system (copyright 1992, Gaussian, Inc.),
 the Gaussian 90(TM) system (copyright 1990, Gaussian, Inc.),
 the Gaussian 88(TM) system (copyright 1988, Gaussian, Inc.),
 the Gaussian 86(TM) system (copyright 1986, Carnegie Mellon
 University), and the Gaussian 82(TM) system (copyright 1983,
 Carnegie Mellon University). Gaussian is a federally registered
 trademark of Gaussian, Inc.
  
 This software contains proprietary and confidential information,
 including trade secrets, belonging to Gaussian, Inc.
  
 This software is provided under written license and may be
 used, copied, transmitted, or stored only in accord with that
 written license.
  
 The following legend is applicable only to US Government
 contracts under FAR:
  
                    RESTRICTED RIGHTS LEGEND
  
 Use, reproduction and disclosure by the US Government is
 subject to restrictions as set forth in subparagraphs (a)
 and (c) of the Commercial Computer Software - Restricted
 Rights clause in FAR 52.227-19.
  
 Gaussian, Inc.
 340 Quinnipiac St., Bldg. 40, Wallingford CT 06492
  
  
 ---------------------------------------------------------------
 Warning -- This program may not be used in any manner that
 competes with the business of Gaussian, Inc. or will provide
 assistance to any competitor of Gaussian, Inc.  The licensee
 of this program is prohibited from giving any competitor of
 Gaussian, Inc. access to this program.  By using this program,
 the user acknowledges that Gaussian, Inc. is engaged in the
 business of creating and licensing software in the field of
 computational chemistry and represents and warrants to the
 licensee that it is not a competitor of Gaussian, Inc. and that
 it will not use this program in any manner prohibited above.
 ---------------------------------------------------------------
  

 Cite this work as:
 Gaussian 16, Revision A.03,
 M. J. Frisch, G. W. Trucks, H. B. Schlegel, G. E. Scuseria, 
 M. A. Robb, J. R. Cheeseman, G. Scalmani, V. Barone, 
 G. A. Petersson, H. Nakatsuji, X. Li, M. Caricato, A. V. Marenich, 
 J. Bloino, B. G. Janesko, R. Gomperts, B. Mennucci, H. P. Hratchian, 
 J. V. Ortiz, A. F. Izmaylov, J. L. Sonnenberg, D. Williams-Young, 
 F. Ding, F. Lipparini, F. Egidi, J. Goings, B. Peng, A. Petrone, 
 T. Henderson, D. Ranasinghe, V. G. Zakrzewski, J. Gao, N. Rega, 
 G. Zheng, W. Liang, M. Hada, M. Ehara, K. Toyota, R. Fukuda, 
 J. Hasegawa, M. Ishida, T. Nakajima, Y. Honda, O. Kitao, H. Nakai, 
 T. Vreven, K. Throssell, J. A. Montgomery, Jr., J. E. Peralta, 
 F. Ogliaro, M. J. Bearpark, J. J. Heyd, E. N. Brothers, K. N. Kudin, 
 V. N. Staroverov, T. A. Keith, R. Kobayashi, J. Normand, 
 K. Raghavachari, A. P. Rendell, J. C. Burant, S. S. Iyengar, 
 J. Tomasi, M. Cossi, J. M. Millam, M. Klene, C. Adamo, R. Cammi, 
 J. W. Ochterski, R. L. Martin, K. Morokuma, O. Farkas, 
 J. B. Foresman, and D. J. Fox, Gaussian, Inc., Wallingford CT, 2016.
 
 ******************************************
 Gaussian 16:  ES64L-G16RevA.03 25-Dec-2016
                31-Aug-2022 
 ******************************************
 %nprocs=12
 Will use up to   12 processors via shared memory.
 %mem=16GB
 %oldchk=1cck_II_S.chk
 %chk=1cck_III_D.chk
 Copying data from "1cck_II_S.chk" to current chk file "1cck_III_D.chk"
 IOpt=  2 FromEx=T IUOpen= 4 IOptOp= 5 NList=   0 IFRang= 0 IUIn= 4 IUOut= 2.
 ----------------------------------------------------------------------
 # PBE1PBE/def2TZVP empiricaldispersion=GD3BJ scf=maxcycle=999 geom=che
 ck pop=nbo
 ----------------------------------------------------------------------
 1/29=2,38=1,172=1/1;
 2/12=2,40=1/2;
 3/5=44,7=101,11=2,14=-4,25=1,30=1,74=-13,124=41/1,2,3;
 4//1;
 5/5=2,7=999,38=5/2;
 6/7=2,8=2,9=2,10=2,28=1,40=1/1,7;
 99/5=1,9=1/99;
 ----------
 1cck_III_D
 ----------
 Structure from the checkpoint file:  "1cck_III_D.chk"
 Charge =  1 Multiplicity = 2
 Z-Matrix found in chk file.
 C,0,-8.983,54.799,107.567001
 C,0,-8.54,55.606998,108.792
 N,0,-9.235,56.48,109.509003
 C,0,-7.314,55.534,109.401001
 C,0,-8.503,56.910999,110.500999
 N,0,-7.319,56.334999,110.436996
 H,0,-10.068,56.903999,109.240997
 Fe,0,-5.819,56.952,111.661003
 C,0,-5.402,53.929001,112.991997
 C,0,-7.54,57.979,114.383003
 C,0,-5.948,60.127998,110.458
 C,0,-3.64,56.141998,109.214996
 N,0,-6.453,56.078999,113.372002
 C,0,-6.162,54.831001,113.746002
 C,0,-6.72,54.561001,114.978996
 C,0,-7.402,55.723999,115.358002
 C,0,-7.134,56.641998,114.375
 C,0,-8.3,55.936001,116.572998
 C,0,-6.63,53.219002,115.699997
 C,0,-5.402,53.037998,116.555
 C,0,-5.327,51.671001,117.238998
 O,0,-6.233,51.285,117.983002
 O,0,-4.34,50.955002,117.054001
 N,0,-6.811,58.708,112.205002
 C,0,-7.412,58.931999,113.367996
 C,0,-7.948,60.220001,113.431
 C,0,-7.516,60.838001,112.250999
 C,0,-6.724,59.891998,111.598
 C,0,-8.881,60.683998,114.561996
 C,0,-7.822,62.084999,111.697998
 C,0,-8.33176962,62.9262641,112.69616128
 N,0,-4.944,57.963001,110.096001
 C,0,-5.105,59.257,109.750999
 C,0,-4.341,59.617001,108.634003
 C,0,-3.612,58.455002,108.348
 C,0,-4.065,57.478001,109.233002
 C,0,-4.249,61.014999,107.987
 C,0,-2.607,58.181999,107.403
 C,0,-2.176,58.978001,106.297997
 N,0,-4.692,55.285,111.160004
 C,0,-3.961,55.115002,110.064003
 C,0,-3.616,53.791,109.886002
 C,0,-4.152,53.131001,110.990997
 C,0,-4.763,54.104,111.761002
 C,0,-2.941,53.191002,108.672997
 C,0,-4.125,51.634998,111.255997
 C,0,-2.886,51.203999,112.029999
 C,0,-2.951,49.791,112.564003
 O,0,-2.38,49.560001,113.612
 O,0,-3.559,48.915001,111.950996
 O,0,-4.281,57.657001,113.107002
 H,0,-6.02075276,50.85383657,118.81405507
 H,0,-4.53580591,53.15947432,115.93867922
 H,0,-5.39545363,53.79770233,117.30846299
 H,0,-7.49290101,53.11366467,116.32386068
 H,0,-6.64652785,52.44080115,114.96581019
 H,0,-7.80365999,56.57085129,117.27692392
 H,0,-9.21621309,56.39406599,116.26375693
 H,0,-8.50993654,54.99177269,117.03044696
 H,0,-8.00987808,58.31744685,115.28276314
 H,0,-8.40289455,61.45945002,115.12323511
 H,0,-9.79188291,61.05708943,114.14247829
 H,0,-9.09738873,59.8582961,115.20720317
 H,0,-8.55324801,61.96324539,110.92640717
 H,0,-9.39447857,62.99771319,112.59396186
 H,0,-8.092229,62.52398892,113.65829171
 H,0,-6.00605471,61.12206124,110.06637782
 H,0,-3.35563943,61.07898593,107.40158343
 H,0,-5.0998343,61.17352026,107.3578323
 H,0,-4.22773686,61.76181106,108.75297625
 H,0,-3.42966867,58.10066188,113.107002
 H,0,-4.98306459,58.31175691,113.107002
 H,0,-3.0223172,59.2488198,105.70192286
 H,0,-1.69764829,59.86346229,106.66136726
 H,0,-2.88765363,57.24455215,106.97018717
 H,0,-2.96705916,55.88704928,108.42312999
 H,0,-2.00000711,52.77026722,108.96007647
 H,0,-3.56360037,52.42448775,108.26102044
 H,0,-2.78180374,53.95372908,107.93964582
 H,0,-5.29353662,52.95623425,113.4242707
 H,0,-4.14547357,51.11738831,110.31974861
 H,0,-4.99487428,51.36759288,111.81876981
 H,0,-2.03699757,51.28402804,111.38370942
 H,0,-2.75094383,51.87265857,112.85434978
 H,0,-3.07357034,48.23642198,111.47613965
 H,0,-8.81336631,57.61591516,111.24374119
 H,0,-6.49267758,54.92595861,109.08380208
 H,0,-8.24970345,54.05092057,107.34893372
 H,0,-9.92244831,54.32895732,107.77046291
 H,0,-9.08607588,55.45311462,106.72651934
 Recover connectivity data from disk.
 Stoichiometry    C38H40FeN6O5(1+,2)
 Framework group  C1[X(C38H40FeN6O5)]
 Deg. of freedom   264
 Full point group                 C1      NOp   1
 Largest Abelian subgroup         C1      NOp   1
 Largest concise Abelian subgroup C1      NOp   1
                         Standard orientation:                         
 ---------------------------------------------------------------------
 Center     Atomic      Atomic             Coordinates (Angstroms)
 Number     Number       Type             X           Y           Z
 ---------------------------------------------------------------------
      1          6           0       -1.368806   -2.208983    4.940654
      2          6           0       -1.479203   -1.211500    3.781960
      3          7           0       -2.075098   -0.026779    3.757533
      4          6           0       -0.927204   -1.363969    2.536433
      5          6           0       -1.897537    0.526963    2.588139
      6          7           0       -1.195197   -0.293121    1.831894
      7          1           0       -2.719374    0.301471    4.407650
      8         26           0       -0.940744    0.109620   -0.143438
      9          6           0        2.380381    0.118184    0.088961
     10          6           0       -1.008055    3.489105   -0.163676
     11          6           0       -4.289239    0.101342   -0.725102
     12          6           0       -0.862758   -3.218087   -0.697857
     13          7           0        0.444264    1.573916    0.027429
     14          6           0        1.762538    1.374358    0.093648
     15          6           0        2.423966    2.583209    0.169359
     16          6           0        1.429592    3.569364    0.162103
     17          6           0        0.247385    2.895532   -0.008704
     18          6           0        1.593570    5.074121    0.352848
     19          6           0        3.936172    2.741186    0.300432
     20          6           0        4.689093    2.756661   -1.005189
     21          6           0        6.204857    2.885166   -0.837538
     22          8           0        6.695761    3.841906   -0.231702
     23          8           0        6.942937    2.027706   -1.328503
     24          7           0       -2.447189    1.556402   -0.174801
     25          6           0       -2.260885    2.870721   -0.217065
     26          6           0       -3.473618    3.561387   -0.266798
     27          6           0       -4.443870    2.558728   -0.386106
     28          6           0       -3.738046    1.355687   -0.441770
     29          6           0       -3.575034    5.087424   -0.105985
     30          6           0       -5.840408    2.620391   -0.367901
     31          6           0       -6.253880    3.929699   -0.648392
     32          7           0       -2.340887   -1.320041   -0.625772
     33          6           0       -3.663379   -1.150258   -0.829661
     34          6           0       -4.316749   -2.344584   -1.157791
     35          6           0       -3.274860   -3.278976   -1.227492
     36          6           0       -2.116573   -2.606978   -0.840503
     37          6           0       -5.813172   -2.519527   -1.491839
     38          6           0       -3.249795   -4.636576   -1.593382
     39          6           0       -4.345803   -5.527297   -1.807379
     40          7           0        0.530323   -1.345911   -0.275375
     41          6           0        0.348929   -2.656899   -0.388897
     42          6           0        1.509016   -3.353596   -0.119634
     43          6           0        2.465142   -2.370638    0.132407
     44          6           0        1.818935   -1.157387   -0.020547
     45          6           0        1.647940   -4.853090    0.019009
     46          6           0        3.907440   -2.594309    0.555166
     47          6           0        4.849139   -2.721200   -0.635239
     48          6           0        6.315647   -2.656009   -0.273219
     49          8           0        7.073200   -2.162660   -1.085880
     50          8           0        6.716690   -3.091898    0.804733
     51          8           0       -0.662430    0.698115   -2.271724
     52          1           0        7.471353    4.285507   -0.582807
     53          1           0        4.479424    1.848728   -1.531113
     54          1           0        4.339267    3.580593   -1.591411
     55          1           0        4.135385    3.658144    0.814634
     56          1           0        4.308742    1.932740    0.894155
     57          1           0        1.424046    5.572307   -0.578803
     58          1           0        0.886101    5.421070    1.076736
     59          1           0        2.585566    5.284342    0.694388
     60          1           0       -1.011017    4.555357   -0.253102
     61          1           0       -3.933272    5.519060   -1.017168
     62          1           0       -4.253341    5.318019    0.688764
     63          1           0       -2.609053    5.486983    0.122341
     64          1           0       -6.197540    2.332978    0.598924
     65          1           0       -6.557990    4.409652    0.258285
     66          1           0       -5.442874    4.473947   -1.085385
     67          1           0       -5.347013    0.095530   -0.886291
     68          1           0       -5.953727   -3.432580   -2.031726
     69          1           0       -6.379838   -2.550683   -0.584745
     70          1           0       -6.143517   -1.696616   -2.090663
     71          1           0       -0.897122    0.389467   -3.149935
     72          1           0       -1.372329    1.242562   -1.923556
     73          1           0       -4.996915   -5.502004   -0.958667
     74          1           0       -4.885786   -5.225119   -2.680309
     75          1           0       -2.656723   -5.110818   -0.839552
     76          1           0       -0.849985   -4.276739   -0.852753
     77          1           0        2.317510   -5.220073   -0.730591
     78          1           0        2.035122   -5.087277    0.988621
     79          1           0        0.689484   -5.312870   -0.102907
     80          1           0        3.446003    0.137299    0.183753
     81          1           0        3.962406   -3.490703    1.136851
     82          1           0        4.222757   -1.769406    1.159327
     83          1           0        4.660182   -3.656450   -1.119493
     84          1           0        4.634000   -1.931215   -1.324106
     85          1           0        7.204886   -3.917874    0.836796
     86          1           0       -2.262267    1.488441    2.292450
     87          1           0       -0.371839   -2.213461    2.197564
     88          1           0       -0.663531   -2.972859    4.687710
     89          1           0       -1.040319   -1.697718    5.821338
     90          1           0       -2.325508   -2.652647    5.121719
 ---------------------------------------------------------------------
 Rotational constants (GHZ):           0.0753431           0.0461685           0.0339717
 Standard basis: def2TZVP (5D, 7F)
 There are  2056 symmetry adapted cartesian basis functions of A   symmetry.
 There are  1804 symmetry adapted basis functions of A   symmetry.
  1804 basis functions,  2921 primitive gaussians,  2056 cartesian basis functions
   188 alpha electrons      187 beta electrons
       nuclear repulsion energy      7604.7015608305 Hartrees.
 NAtoms=   90 NActive=   90 NUniq=   90 SFac= 1.00D+00 NAtFMM=   60 NAOKFM=T Big=T
 Integral buffers will be    131072 words long.
 Raffenetti 2 integral format.
 Two-electron integral symmetry is turned on.
 Nuclear repulsion after empirical dispersion term =     7604.5764181603 Hartrees.
 One-electron integrals computed using PRISM.
   1 Symmetry operations used in ECPInt.
 ECPInt:  NShTT=  255255 NPrTT=  790653 LenC2=  185418 LenP2D=  372529.
 LDataN:  DoStor=T MaxTD1= 6 Len=  172
 NBasis=  1804 RedAO= T EigKep=  2.63D-06  NBF=  1804
 NBsUse=  1804 1.00D-06 EigRej= -1.00D+00 NBFU=  1804
 ExpMin= 4.20D-02 ExpMax= 3.01D+05 ExpMxC= 2.91D+03 IAcc=3 IRadAn=         5 AccDes= 0.00D+00
 Harris functional with IExCor= 1009 and IRadAn=       5 diagonalized for initial guess.
 HarFok:  IExCor= 1009 AccDes= 0.00D+00 IRadAn=         5 IDoV= 1 UseB2=F ITyADJ=14
 ICtDFT=  3500011 ScaDFX=  1.000000  1.000000  1.000000  1.000000
 FoFCou: FMM=F IPFlag=           0 FMFlag=      100000 FMFlg1=        2001
         NFxFlg=           0 DoJE=T BraDBF=F KetDBF=T FulRan=T
         wScrn=  0.000000 ICntrl=       500 IOpCl=  0 I1Cent=   200000004 NGrid=           0
         NMat0=    1 NMatS0=      1 NMatT0=    0 NMatD0=    1 NMtDS0=    0 NMtDT0=    0
 Petite list used in FoFCou.
 Initial guess <Sx>= 0.0000 <Sy>= 0.0000 <Sz>= 0.5000 <S**2>= 0.7500 S= 0.5000
 Requested convergence on RMS density matrix=1.00D-08 within 999 cycles.
 Requested convergence on MAX density matrix=1.00D-06.
 Requested convergence on             energy=1.00D-06.
 No special actions if energy rises.
 EnCoef did     3 forward-backward iterations
 EnCoef did   100 forward-backward iterations
 EnCoef did    11 forward-backward iterations
 EnCoef did     3 forward-backward iterations
 EnCoef did    12 forward-backward iterations
 EnCoef did     6 forward-backward iterations
 Rare condition: small coef for last iteration:  0.000D+00
 Rare condition: small coef for last iteration:  0.000D+00
 Rare condition: small coef for last iteration:  0.000D+00
 Rare condition: small coef for last iteration:  0.000D+00
 Restarting incremental Fock formation.
 Rare condition: small coef for last iteration:  0.000D+00
 Rare condition: small coef for last iteration:  0.000D+00
 Rare condition: small coef for last iteration:  0.000D+00
 Rare condition: small coef for last iteration:  0.000D+00
 Rare condition: small coef for last iteration:  0.000D+00
 Rare condition: small coef for last iteration:  0.000D+00
 Rare condition: small coef for last iteration:  0.000D+00
 Rare condition: small coef for last iteration:  0.000D+00
 Rare condition: small coef for last iteration:  0.000D+00
 Restarting incremental Fock formation.
 Rare condition: small coef for last iteration:  0.000D+00
 Rare condition: small coef for last iteration:  0.000D+00
 Rare condition: small coef for last iteration:  0.000D+00
 Rare condition: small coef for last iteration:  0.000D+00
 Rare condition: small coef for last iteration:  0.000D+00
 Rare condition: small coef for last iteration:  0.000D+00
 Rare condition: small coef for last iteration:  0.000D+00
 Rare condition: small coef for last iteration:  0.000D+00
 Rare condition: small coef for last iteration:  0.000D+00
 Restarting incremental Fock formation.
 Rare condition: small coef for last iteration:  0.000D+00
 Rare condition: small coef for last iteration:  0.000D+00
 Rare condition: small coef for last iteration:  0.000D+00
 Rare condition: small coef for last iteration:  0.000D+00
 Rare condition: small coef for last iteration:  0.000D+00
 Rare condition: small coef for last iteration:  0.000D+00
 Rare condition: small coef for last iteration:  0.000D+00
 Restarting incremental Fock formation.
 Rare condition: small coef for last iteration:  0.000D+00
 Rare condition: small coef for last iteration:  0.000D+00
 Rare condition: small coef for last iteration:  0.000D+00
 Rare condition: small coef for last iteration:  0.000D+00
 Rare condition: small coef for last iteration:  0.000D+00
 Rare condition: small coef for last iteration:  0.000D+00
 Rare condition: small coef for last iteration:  0.000D+00
 Rare condition: small coef for last iteration:  0.000D+00
 Rare condition: small coef for last iteration:  0.000D+00
 Restarting incremental Fock formation.
 Rare condition: small coef for last iteration:  0.000D+00
 Rare condition: small coef for last iteration:  0.000D+00
 Rare condition: small coef for last iteration:  0.000D+00
 Rare condition: small coef for last iteration:  0.000D+00
 Rare condition: small coef for last iteration:  0.000D+00
 Rare condition: small coef for last iteration:  0.000D+00
 Rare condition: small coef for last iteration:  0.000D+00
 Rare condition: small coef for last iteration:  0.000D+00
 Rare condition: small coef for last iteration:  0.000D+00
 Restarting incremental Fock formation.
 Rare condition: small coef for last iteration:  0.000D+00
 Restarting incremental Fock formation.
 Restarting incremental Fock formation.
 Restarting incremental Fock formation.
 Restarting incremental Fock formation.
 Restarting incremental Fock formation.
 SCF Done:  E(UPBE1PBE) =  -3438.26022839     A.U. after  222 cycles
            NFock=222  Conv=0.29D-08     -V/T= 2.0026
 <Sx>= 0.0000 <Sy>= 0.0000 <Sz>= 0.5000 <S**2>= 1.2192 S= 0.7121
 <L.S>= 0.000000000000E+00
 Annihilation of the first spin contaminant:
 S**2 before annihilation     1.2192,   after     0.8544

 **********************************************************************

            Population analysis using the SCF density.

 **********************************************************************

 Orbital symmetries:
 Alpha Orbitals:
       Occupied  (A) (A) (A) (A) (A) (A) (A) (A) (A) (A) (A) (A)
                 (A) (A) (A) (A) (A) (A) (A) (A) (A) (A) (A) (A)
                 (A) (A) (A) (A) (A) (A) (A) (A) (A) (A) (A) (A)
                 (A) (A) (A) (A) (A) (A) (A) (A) (A) (A) (A) (A)
                 (A) (A) (A) (A) (A) (A) (A) (A) (A) (A) (A) (A)
                 (A) (A) (A) (A) (A) (A) (A) (A) (A) (A) (A) (A)
                 (A) (A) (A) (A) (A) (A) (A) (A) (A) (A) (A) (A)
                 (A) (A) (A) (A) (A) (A) (A) (A) (A) (A) (A) (A)
                 (A) (A) (A) (A) (A) (A) (A) (A) (A) (A) (A) (A)
                 (A) (A) (A) (A) (A) (A) (A) (A) (A) (A) (A) (A)
                 (A) (A) (A) (A) (A) (A) (A) (A) (A) (A) (A) (A)
                 (A) (A) (A) (A) (A) (A) (A) (A) (A) (A) (A) (A)
                 (A) (A) (A) (A) (A) (A) (A) (A) (A) (A) (A) (A)
                 (A) (A) (A) (A) (A) (A) (A) (A) (A) (A) (A) (A)
                 (A) (A) (A) (A) (A) (A) (A) (A) (A) (A) (A) (A)
                 (A) (A) (A) (A) (A) (A) (A) (A)
       Virtual   (A) (A) (A) (A) (A) (A) (A) (A) (A) (A) (A) (A)
                 (A) (A) (A) (A) (A) (A) (A) (A) (A) (A) (A) (A)
                 (A) (A) (A) (A) (A) (A) (A) (A) (A) (A) (A) (A)
                 (A) (A) (A) (A) (A) (A) (A) (A) (A) (A) (A) (A)
                 (A) (A) (A) (A) (A) (A) (A) (A) (A) (A) (A) (A)
                 (A) (A) (A) (A) (A) (A) (A) (A) (A) (A) (A) (A)
                 (A) (A) (A) (A) (A) (A) (A) (A) (A) (A) (A) (A)
                 (A) (A) (A) (A) (A) (A) (A) (A) (A) (A) (A) (A)
                 (A) (A) (A) (A) (A) (A) (A) (A) (A) (A) (A) (A)
                 (A) (A) (A) (A) (A) (A) (A) (A) (A) (A) (A) (A)
                 (A) (A) (A) (A) (A) (A) (A) (A) (A) (A) (A) (A)
                 (A) (A) (A) (A) (A) (A) (A) (A) (A) (A) (A) (A)
                 (A) (A) (A) (A) (A) (A) (A) (A) (A) (A) (A) (A)
                 (A) (A) (A) (A) (A) (A) (A) (A) (A) (A) (A) (A)
                 (A) (A) (A) (A) (A) (A) (A) (A) (A) (A) (A) (A)
                 (A) (A) (A) (A) (A) (A) (A) (A) (A) (A) (A) (A)
                 (A) (A) (A) (A) (A) (A) (A) (A) (A) (A) (A) (A)
                 (A) (A) (A) (A) (A) (A) (A) (A) (A) (A) (A) (A)
                 (A) (A) (A) (A) (A) (A) (A) (A) (A) (A) (A) (A)
                 (A) (A) (A) (A) (A) (A) (A) (A) (A) (A) (A) (A)
                 (A) (A) (A) (A) (A) (A) (A) (A) (A) (A) (A) (A)
                 (A) (A) (A) (A) (A) (A) (A) (A) (A) (A) (A) (A)
                 (A) (A) (A) (A) (A) (A) (A) (A) (A) (A) (A) (A)
                 (A) (A) (A) (A) (A) (A) (A) (A) (A) (A) (A) (A)
                 (A) (A) (A) (A) (A) (A) (A) (A) (A) (A) (A) (A)
                 (A) (A) (A) (A) (A) (A) (A) (A) (A) (A) (A) (A)
                 (A) (A) (A) (A) (A) (A) (A) (A) (A) (A) (A) (A)
                 (A) (A) (A) (A) (A) (A) (A) (A) (A) (A) (A) (A)
                 (A) (A) (A) (A) (A) (A) (A) (A) (A) (A) (A) (A)
                 (A) (A) (A) (A) (A) (A) (A) (A) (A) (A) (A) (A)
                 (A) (A) (A) (A) (A) (A) (A) (A) (A) (A) (A) (A)
                 (A) (A) (A) (A) (A) (A) (A) (A) (A) (A) (A) (A)
                 (A) (A) (A) (A) (A) (A) (A) (A) (A) (A) (A) (A)
                 (A) (A) (A) (A) (A) (A) (A) (A) (A) (A) (A) (A)
                 (A) (A) (A) (A) (A) (A) (A) (A) (A) (A) (A) (A)
                 (A) (A) (A) (A) (A) (A) (A) (A) (A) (A) (A) (A)
                 (A) (A) (A) (A) (A) (A) (A) (A) (A) (A) (A) (A)
                 (A) (A) (A) (A) (A) (A) (A) (A) (A) (A) (A) (A)
                 (A) (A) (A) (A) (A) (A) (A) (A) (A) (A) (A) (A)
                 (A) (A) (A) (A) (A) (A) (A) (A) (A) (A) (A) (A)
                 (A) (A) (A) (A) (A) (A) (A) (A) (A) (A) (A) (A)
                 (A) (A) (A) (A) (A) (A) (A) (A) (A) (A) (A) (A)
                 (A) (A) (A) (A) (A) (A) (A) (A) (A) (A) (A) (A)
                 (A) (A) (A) (A) (A) (A) (A) (A) (A) (A) (A) (A)
                 (A) (A) (A) (A) (A) (A) (A) (A) (A) (A) (A) (A)
                 (A) (A) (A) (A) (A) (A) (A) (A) (A) (A) (A) (A)
                 (A) (A) (A) (A) (A) (A) (A) (A) (A) (A) (A) (A)
                 (A) (A) (A) (A) (A) (A) (A) (A) (A) (A) (A) (A)
                 (A) (A) (A) (A) (A) (A) (A) (A) (A) (A) (A) (A)
                 (A) (A) (A) (A) (A) (A) (A) (A) (A) (A) (A) (A)
                 (A) (A) (A) (A) (A) (A) (A) (A) (A) (A) (A) (A)
                 (A) (A) (A) (A) (A) (A) (A) (A) (A) (A) (A) (A)
                 (A) (A) (A) (A) (A) (A) (A) (A) (A) (A) (A) (A)
                 (A) (A) (A) (A) (A) (A) (A) (A) (A) (A) (A) (A)
                 (A) (A) (A) (A) (A) (A) (A) (A) (A) (A) (A) (A)
                 (A) (A) (A) (A) (A) (A) (A) (A) (A) (A) (A) (A)
                 (A) (A) (A) (A) (A) (A) (A) (A) (A) (A) (A) (A)
                 (A) (A) (A) (A) (A) (A) (A) (A) (A) (A) (A) (A)
                 (A) (A) (A) (A) (A) (A) (A) (A) (A) (A) (A) (A)
                 (A) (A) (A) (A) (A) (A) (A) (A) (A) (A) (A) (A)
                 (A) (A) (A) (A) (A) (A) (A) (A) (A) (A) (A) (A)
                 (A) (A) (A) (A) (A) (A) (A) (A) (A) (A) (A) (A)
                 (A) (A) (A) (A) (A) (A) (A) (A) (A) (A) (A) (A)
                 (A) (A) (A) (A) (A) (A) (A) (A) (A) (A) (A) (A)
                 (A) (A) (A) (A) (A) (A) (A) (A) (A) (A) (A) (A)
                 (A) (A) (A) (A) (A) (A) (A) (A) (A) (A) (A) (A)
                 (A) (A) (A) (A) (A) (A) (A) (A) (A) (A) (A) (A)
                 (A) (A) (A) (A) (A) (A) (A) (A) (A) (A) (A) (A)
                 (A) (A) (A) (A) (A) (A) (A) (A) (A) (A) (A) (A)
                 (A) (A) (A) (A) (A) (A) (A) (A) (A) (A) (A) (A)
                 (A) (A) (A) (A) (A) (A) (A) (A) (A) (A) (A) (A)
                 (A) (A) (A) (A) (A) (A) (A) (A) (A) (A) (A) (A)
                 (A) (A) (A) (A) (A) (A) (A) (A) (A) (A) (A) (A)
                 (A) (A) (A) (A) (A) (A) (A) (A) (A) (A) (A) (A)
                 (A) (A) (A) (A) (A) (A) (A) (A) (A) (A) (A) (A)
                 (A) (A) (A) (A) (A) (A) (A) (A) (A) (A) (A) (A)
                 (A) (A) (A) (A) (A) (A) (A) (A) (A) (A) (A) (A)
                 (A) (A) (A) (A) (A) (A) (A) (A) (A) (A) (A) (A)
                 (A) (A) (A) (A) (A) (A) (A) (A) (A) (A) (A) (A)
                 (A) (A) (A) (A) (A) (A) (A) (A) (A) (A) (A) (A)
                 (A) (A) (A) (A) (A) (A) (A) (A) (A) (A) (A) (A)
                 (A) (A) (A) (A) (A) (A) (A) (A) (A) (A) (A) (A)
                 (A) (A) (A) (A) (A) (A) (A) (A) (A) (A) (A) (A)
                 (A) (A) (A) (A) (A) (A) (A) (A) (A) (A) (A) (A)
                 (A) (A) (A) (A) (A) (A) (A) (A) (A) (A) (A) (A)
                 (A) (A) (A) (A) (A) (A) (A) (A) (A) (A) (A) (A)
                 (A) (A) (A) (A) (A) (A) (A) (A) (A) (A) (A) (A)
                 (A) (A) (A) (A) (A) (A) (A) (A) (A) (A) (A) (A)
                 (A) (A) (A) (A) (A) (A) (A) (A) (A) (A) (A) (A)
                 (A) (A) (A) (A) (A) (A) (A) (A) (A) (A) (A) (A)
                 (A) (A) (A) (A) (A) (A) (A) (A) (A) (A) (A) (A)
                 (A) (A) (A) (A) (A) (A) (A) (A) (A) (A) (A) (A)
                 (A) (A) (A) (A) (A) (A) (A) (A) (A) (A) (A) (A)
                 (A) (A) (A) (A) (A) (A) (A) (A) (A) (A) (A) (A)
                 (A) (A) (A) (A) (A) (A) (A) (A) (A) (A) (A) (A)
                 (A) (A) (A) (A) (A) (A) (A) (A) (A) (A) (A) (A)
                 (A) (A) (A) (A) (A) (A) (A) (A) (A) (A) (A) (A)
                 (A) (A) (A) (A) (A) (A) (A) (A) (A) (A) (A) (A)
                 (A) (A) (A) (A) (A) (A) (A) (A) (A) (A) (A) (A)
                 (A) (A) (A) (A) (A) (A) (A) (A) (A) (A) (A) (A)
                 (A) (A) (A) (A) (A) (A) (A) (A) (A) (A) (A) (A)
                 (A) (A) (A) (A) (A) (A) (A) (A) (A) (A) (A) (A)
                 (A) (A) (A) (A) (A) (A) (A) (A) (A) (A) (A) (A)
                 (A) (A) (A) (A) (A) (A) (A) (A) (A) (A) (A) (A)
                 (A) (A) (A) (A) (A) (A) (A) (A) (A) (A) (A) (A)
                 (A) (A) (A) (A) (A) (A) (A) (A) (A) (A) (A) (A)
                 (A) (A) (A) (A) (A) (A) (A) (A) (A) (A) (A) (A)
                 (A) (A) (A) (A) (A) (A) (A) (A) (A) (A) (A) (A)
                 (A) (A) (A) (A) (A) (A) (A) (A) (A) (A) (A) (A)
                 (A) (A) (A) (A) (A) (A) (A) (A) (A) (A) (A) (A)
                 (A) (A) (A) (A) (A) (A) (A) (A) (A) (A) (A) (A)
                 (A) (A) (A) (A) (A) (A) (A) (A) (A) (A) (A) (A)
                 (A) (A) (A) (A) (A) (A) (A) (A) (A) (A) (A) (A)
                 (A) (A) (A) (A) (A) (A) (A) (A) (A) (A) (A) (A)
                 (A) (A) (A) (A) (A) (A) (A) (A) (A) (A) (A) (A)
                 (A) (A) (A) (A) (A) (A) (A) (A) (A) (A) (A) (A)
                 (A) (A) (A) (A) (A) (A) (A) (A) (A) (A) (A) (A)
                 (A) (A) (A) (A) (A) (A) (A) (A) (A) (A) (A) (A)
                 (A) (A) (A) (A) (A) (A) (A) (A) (A) (A) (A) (A)
                 (A) (A) (A) (A) (A) (A) (A) (A) (A) (A) (A) (A)
                 (A) (A) (A) (A) (A) (A) (A) (A) (A) (A) (A) (A)
                 (A) (A) (A) (A) (A) (A) (A) (A) (A) (A) (A) (A)
                 (A) (A) (A) (A) (A) (A) (A) (A) (A) (A) (A) (A)
                 (A) (A) (A) (A) (A) (A) (A) (A) (A) (A) (A) (A)
                 (A) (A) (A) (A) (A) (A) (A) (A) (A) (A) (A) (A)
                 (A) (A) (A) (A) (A) (A) (A) (A) (A) (A) (A) (A)
                 (A) (A) (A) (A) (A) (A) (A) (A) (A) (A) (A) (A)
                 (A) (A) (A) (A) (A) (A) (A) (A) (A) (A) (A) (A)
                 (A) (A) (A) (A) (A) (A) (A) (A) (A) (A) (A) (A)
                 (A) (A) (A) (A) (A) (A) (A) (A) (A) (A) (A) (A)
                 (A) (A) (A) (A) (A) (A) (A) (A) (A) (A) (A) (A)
                 (A) (A) (A) (A) (A) (A) (A) (A) (A) (A) (A) (A)
                 (A) (A) (A) (A) (A) (A) (A) (A) (A) (A) (A) (A)
                 (A) (A) (A) (A) (A) (A) (A) (A) (A) (A) (A) (A)
                 (A) (A) (A) (A) (A) (A) (A) (A)
 Beta  Orbitals:
       Occupied  (A) (A) (A) (A) (A) (A) (A) (A) (A) (A) (A) (A)
                 (A) (A) (A) (A) (A) (A) (A) (A) (A) (A) (A) (A)
                 (A) (A) (A) (A) (A) (A) (A) (A) (A) (A) (A) (A)
                 (A) (A) (A) (A) (A) (A) (A) (A) (A) (A) (A) (A)
                 (A) (A) (A) (A) (A) (A) (A) (A) (A) (A) (A) (A)
                 (A) (A) (A) (A) (A) (A) (A) (A) (A) (A) (A) (A)
                 (A) (A) (A) (A) (A) (A) (A) (A) (A) (A) (A) (A)
                 (A) (A) (A) (A) (A) (A) (A) (A) (A) (A) (A) (A)
                 (A) (A) (A) (A) (A) (A) (A) (A) (A) (A) (A) (A)
                 (A) (A) (A) (A) (A) (A) (A) (A) (A) (A) (A) (A)
                 (A) (A) (A) (A) (A) (A) (A) (A) (A) (A) (A) (A)
                 (A) (A) (A) (A) (A) (A) (A) (A) (A) (A) (A) (A)
                 (A) (A) (A) (A) (A) (A) (A) (A) (A) (A) (A) (A)
                 (A) (A) (A) (A) (A) (A) (A) (A) (A) (A) (A) (A)
                 (A) (A) (A) (A) (A) (A) (A) (A) (A) (A) (A) (A)
                 (A) (A) (A) (A) (A) (A) (A)
       Virtual   (A) (A) (A) (A) (A) (A) (A) (A) (A) (A) (A) (A)
                 (A) (A) (A) (A) (A) (A) (A) (A) (A) (A) (A) (A)
                 (A) (A) (A) (A) (A) (A) (A) (A) (A) (A) (A) (A)
                 (A) (A) (A) (A) (A) (A) (A) (A) (A) (A) (A) (A)
                 (A) (A) (A) (A) (A) (A) (A) (A) (A) (A) (A) (A)
                 (A) (A) (A) (A) (A) (A) (A) (A) (A) (A) (A) (A)
                 (A) (A) (A) (A) (A) (A) (A) (A) (A) (A) (A) (A)
                 (A) (A) (A) (A) (A) (A) (A) (A) (A) (A) (A) (A)
                 (A) (A) (A) (A) (A) (A) (A) (A) (A) (A) (A) (A)
                 (A) (A) (A) (A) (A) (A) (A) (A) (A) (A) (A) (A)
                 (A) (A) (A) (A) (A) (A) (A) (A) (A) (A) (A) (A)
                 (A) (A) (A) (A) (A) (A) (A) (A) (A) (A) (A) (A)
                 (A) (A) (A) (A) (A) (A) (A) (A) (A) (A) (A) (A)
                 (A) (A) (A) (A) (A) (A) (A) (A) (A) (A) (A) (A)
                 (A) (A) (A) (A) (A) (A) (A) (A) (A) (A) (A) (A)
                 (A) (A) (A) (A) (A) (A) (A) (A) (A) (A) (A) (A)
                 (A) (A) (A) (A) (A) (A) (A) (A) (A) (A) (A) (A)
                 (A) (A) (A) (A) (A) (A) (A) (A) (A) (A) (A) (A)
                 (A) (A) (A) (A) (A) (A) (A) (A) (A) (A) (A) (A)
                 (A) (A) (A) (A) (A) (A) (A) (A) (A) (A) (A) (A)
                 (A) (A) (A) (A) (A) (A) (A) (A) (A) (A) (A) (A)
                 (A) (A) (A) (A) (A) (A) (A) (A) (A) (A) (A) (A)
                 (A) (A) (A) (A) (A) (A) (A) (A) (A) (A) (A) (A)
                 (A) (A) (A) (A) (A) (A) (A) (A) (A) (A) (A) (A)
                 (A) (A) (A) (A) (A) (A) (A) (A) (A) (A) (A) (A)
                 (A) (A) (A) (A) (A) (A) (A) (A) (A) (A) (A) (A)
                 (A) (A) (A) (A) (A) (A) (A) (A) (A) (A) (A) (A)
                 (A) (A) (A) (A) (A) (A) (A) (A) (A) (A) (A) (A)
                 (A) (A) (A) (A) (A) (A) (A) (A) (A) (A) (A) (A)
                 (A) (A) (A) (A) (A) (A) (A) (A) (A) (A) (A) (A)
                 (A) (A) (A) (A) (A) (A) (A) (A) (A) (A) (A) (A)
                 (A) (A) (A) (A) (A) (A) (A) (A) (A) (A) (A) (A)
                 (A) (A) (A) (A) (A) (A) (A) (A) (A) (A) (A) (A)
                 (A) (A) (A) (A) (A) (A) (A) (A) (A) (A) (A) (A)
                 (A) (A) (A) (A) (A) (A) (A) (A) (A) (A) (A) (A)
                 (A) (A) (A) (A) (A) (A) (A) (A) (A) (A) (A) (A)
                 (A) (A) (A) (A) (A) (A) (A) (A) (A) (A) (A) (A)
                 (A) (A) (A) (A) (A) (A) (A) (A) (A) (A) (A) (A)
                 (A) (A) (A) (A) (A) (A) (A) (A) (A) (A) (A) (A)
                 (A) (A) (A) (A) (A) (A) (A) (A) (A) (A) (A) (A)
                 (A) (A) (A) (A) (A) (A) (A) (A) (A) (A) (A) (A)
                 (A) (A) (A) (A) (A) (A) (A) (A) (A) (A) (A) (A)
                 (A) (A) (A) (A) (A) (A) (A) (A) (A) (A) (A) (A)
                 (A) (A) (A) (A) (A) (A) (A) (A) (A) (A) (A) (A)
                 (A) (A) (A) (A) (A) (A) (A) (A) (A) (A) (A) (A)
                 (A) (A) (A) (A) (A) (A) (A) (A) (A) (A) (A) (A)
                 (A) (A) (A) (A) (A) (A) (A) (A) (A) (A) (A) (A)
                 (A) (A) (A) (A) (A) (A) (A) (A) (A) (A) (A) (A)
                 (A) (A) (A) (A) (A) (A) (A) (A) (A) (A) (A) (A)
                 (A) (A) (A) (A) (A) (A) (A) (A) (A) (A) (A) (A)
                 (A) (A) (A) (A) (A) (A) (A) (A) (A) (A) (A) (A)
                 (A) (A) (A) (A) (A) (A) (A) (A) (A) (A) (A) (A)
                 (A) (A) (A) (A) (A) (A) (A) (A) (A) (A) (A) (A)
                 (A) (A) (A) (A) (A) (A) (A) (A) (A) (A) (A) (A)
                 (A) (A) (A) (A) (A) (A) (A) (A) (A) (A) (A) (A)
                 (A) (A) (A) (A) (A) (A) (A) (A) (A) (A) (A) (A)
                 (A) (A) (A) (A) (A) (A) (A) (A) (A) (A) (A) (A)
                 (A) (A) (A) (A) (A) (A) (A) (A) (A) (A) (A) (A)
                 (A) (A) (A) (A) (A) (A) (A) (A) (A) (A) (A) (A)
                 (A) (A) (A) (A) (A) (A) (A) (A) (A) (A) (A) (A)
                 (A) (A) (A) (A) (A) (A) (A) (A) (A) (A) (A) (A)
                 (A) (A) (A) (A) (A) (A) (A) (A) (A) (A) (A) (A)
                 (A) (A) (A) (A) (A) (A) (A) (A) (A) (A) (A) (A)
                 (A) (A) (A) (A) (A) (A) (A) (A) (A) (A) (A) (A)
                 (A) (A) (A) (A) (A) (A) (A) (A) (A) (A) (A) (A)
                 (A) (A) (A) (A) (A) (A) (A) (A) (A) (A) (A) (A)
                 (A) (A) (A) (A) (A) (A) (A) (A) (A) (A) (A) (A)
                 (A) (A) (A) (A) (A) (A) (A) (A) (A) (A) (A) (A)
                 (A) (A) (A) (A) (A) (A) (A) (A) (A) (A) (A) (A)
                 (A) (A) (A) (A) (A) (A) (A) (A) (A) (A) (A) (A)
                 (A) (A) (A) (A) (A) (A) (A) (A) (A) (A) (A) (A)
                 (A) (A) (A) (A) (A) (A) (A) (A) (A) (A) (A) (A)
                 (A) (A) (A) (A) (A) (A) (A) (A) (A) (A) (A) (A)
                 (A) (A) (A) (A) (A) (A) (A) (A) (A) (A) (A) (A)
                 (A) (A) (A) (A) (A) (A) (A) (A) (A) (A) (A) (A)
                 (A) (A) (A) (A) (A) (A) (A) (A) (A) (A) (A) (A)
                 (A) (A) (A) (A) (A) (A) (A) (A) (A) (A) (A) (A)
                 (A) (A) (A) (A) (A) (A) (A) (A) (A) (A) (A) (A)
                 (A) (A) (A) (A) (A) (A) (A) (A) (A) (A) (A) (A)
                 (A) (A) (A) (A) (A) (A) (A) (A) (A) (A) (A) (A)
                 (A) (A) (A) (A) (A) (A) (A) (A) (A) (A) (A) (A)
                 (A) (A) (A) (A) (A) (A) (A) (A) (A) (A) (A) (A)
                 (A) (A) (A) (A) (A) (A) (A) (A) (A) (A) (A) (A)
                 (A) (A) (A) (A) (A) (A) (A) (A) (A) (A) (A) (A)
                 (A) (A) (A) (A) (A) (A) (A) (A) (A) (A) (A) (A)
                 (A) (A) (A) (A) (A) (A) (A) (A) (A) (A) (A) (A)
                 (A) (A) (A) (A) (A) (A) (A) (A) (A) (A) (A) (A)
                 (A) (A) (A) (A) (A) (A) (A) (A) (A) (A) (A) (A)
                 (A) (A) (A) (A) (A) (A) (A) (A) (A) (A) (A) (A)
                 (A) (A) (A) (A) (A) (A) (A) (A) (A) (A) (A) (A)
                 (A) (A) (A) (A) (A) (A) (A) (A) (A) (A) (A) (A)
                 (A) (A) (A) (A) (A) (A) (A) (A) (A) (A) (A) (A)
                 (A) (A) (A) (A) (A) (A) (A) (A) (A) (A) (A) (A)
                 (A) (A) (A) (A) (A) (A) (A) (A) (A) (A) (A) (A)
                 (A) (A) (A) (A) (A) (A) (A) (A) (A) (A) (A) (A)
                 (A) (A) (A) (A) (A) (A) (A) (A) (A) (A) (A) (A)
                 (A) (A) (A) (A) (A) (A) (A) (A) (A) (A) (A) (A)
                 (A) (A) (A) (A) (A) (A) (A) (A) (A) (A) (A) (A)
                 (A) (A) (A) (A) (A) (A) (A) (A) (A) (A) (A) (A)
                 (A) (A) (A) (A) (A) (A) (A) (A) (A) (A) (A) (A)
                 (A) (A) (A) (A) (A) (A) (A) (A) (A) (A) (A) (A)
                 (A) (A) (A) (A) (A) (A) (A) (A) (A) (A) (A) (A)
                 (A) (A) (A) (A) (A) (A) (A) (A) (A) (A) (A) (A)
                 (A) (A) (A) (A) (A) (A) (A) (A) (A) (A) (A) (A)
                 (A) (A) (A) (A) (A) (A) (A) (A) (A) (A) (A) (A)
                 (A) (A) (A) (A) (A) (A) (A) (A) (A) (A) (A) (A)
                 (A) (A) (A) (A) (A) (A) (A) (A) (A) (A) (A) (A)
                 (A) (A) (A) (A) (A) (A) (A) (A) (A) (A) (A) (A)
                 (A) (A) (A) (A) (A) (A) (A) (A) (A) (A) (A) (A)
                 (A) (A) (A) (A) (A) (A) (A) (A) (A) (A) (A) (A)
                 (A) (A) (A) (A) (A) (A) (A) (A) (A) (A) (A) (A)
                 (A) (A) (A) (A) (A) (A) (A) (A) (A) (A) (A) (A)
                 (A) (A) (A) (A) (A) (A) (A) (A) (A) (A) (A) (A)
                 (A) (A) (A) (A) (A) (A) (A) (A) (A) (A) (A) (A)
                 (A) (A) (A) (A) (A) (A) (A) (A) (A) (A) (A) (A)
                 (A) (A) (A) (A) (A) (A) (A) (A) (A) (A) (A) (A)
                 (A) (A) (A) (A) (A) (A) (A) (A) (A) (A) (A) (A)
                 (A) (A) (A) (A) (A) (A) (A) (A) (A) (A) (A) (A)
                 (A) (A) (A) (A) (A) (A) (A) (A) (A) (A) (A) (A)
                 (A) (A) (A) (A) (A) (A) (A) (A) (A) (A) (A) (A)
                 (A) (A) (A) (A) (A) (A) (A) (A) (A) (A) (A) (A)
                 (A) (A) (A) (A) (A) (A) (A) (A) (A) (A) (A) (A)
                 (A) (A) (A) (A) (A) (A) (A) (A) (A) (A) (A) (A)
                 (A) (A) (A) (A) (A) (A) (A) (A) (A) (A) (A) (A)
                 (A) (A) (A) (A) (A) (A) (A) (A) (A) (A) (A) (A)
                 (A) (A) (A) (A) (A) (A) (A) (A) (A) (A) (A) (A)
                 (A) (A) (A) (A) (A) (A) (A) (A) (A) (A) (A) (A)
                 (A) (A) (A) (A) (A) (A) (A) (A) (A) (A) (A) (A)
                 (A) (A) (A) (A) (A) (A) (A) (A) (A) (A) (A) (A)
                 (A) (A) (A) (A) (A) (A) (A) (A) (A) (A) (A) (A)
                 (A) (A) (A) (A) (A) (A) (A) (A) (A) (A) (A) (A)
                 (A) (A) (A) (A) (A) (A) (A) (A) (A) (A) (A) (A)
                 (A) (A) (A) (A) (A) (A) (A) (A) (A) (A) (A) (A)
                 (A) (A) (A) (A) (A) (A) (A) (A) (A) (A) (A) (A)
                 (A) (A) (A) (A) (A) (A) (A) (A) (A)
 The electronic state is 2-A.
 Alpha  occ. eigenvalues -- -256.44165 -30.20643 -26.03468 -26.03319 -26.02980
 Alpha  occ. eigenvalues --  -19.31735 -19.31359 -19.31158 -19.23217 -19.22869
 Alpha  occ. eigenvalues --  -14.54763 -14.49917 -14.49608 -14.47954 -14.46346
 Alpha  occ. eigenvalues --  -14.46255 -10.40613 -10.40254 -10.38038 -10.37519
 Alpha  occ. eigenvalues --  -10.36621 -10.36544 -10.35954 -10.35867 -10.35645
 Alpha  occ. eigenvalues --  -10.35631 -10.35340 -10.35093 -10.34317 -10.34070
 Alpha  occ. eigenvalues --  -10.34063 -10.33922 -10.33599 -10.33085 -10.32942
 Alpha  occ. eigenvalues --  -10.32630 -10.32589 -10.32584 -10.32576 -10.32244
 Alpha  occ. eigenvalues --  -10.31819 -10.31596 -10.31585 -10.31568 -10.31498
 Alpha  occ. eigenvalues --  -10.31444 -10.31346 -10.31007 -10.30547 -10.30452
 Alpha  occ. eigenvalues --  -10.30262 -10.29887 -10.29754 -10.29481  -3.55149
 Alpha  occ. eigenvalues --   -2.31072  -2.30521  -2.30181  -1.23610  -1.23566
 Alpha  occ. eigenvalues --   -1.18945  -1.15148  -1.12403  -1.11132  -1.10044
 Alpha  occ. eigenvalues --   -1.09517  -1.09174  -1.08260  -1.03287  -0.97507
 Alpha  occ. eigenvalues --   -0.95158  -0.94634  -0.92819  -0.92334  -0.92162
 Alpha  occ. eigenvalues --   -0.91851  -0.90634  -0.90292  -0.88589  -0.87457
 Alpha  occ. eigenvalues --   -0.87174  -0.86048  -0.85364  -0.83361  -0.82361
 Alpha  occ. eigenvalues --   -0.82012  -0.81611  -0.80363  -0.78028  -0.77413
 Alpha  occ. eigenvalues --   -0.77023  -0.76521  -0.76358  -0.75455  -0.73497
 Alpha  occ. eigenvalues --   -0.73137  -0.72975  -0.71561  -0.70047  -0.69344
 Alpha  occ. eigenvalues --   -0.67613  -0.67354  -0.66990  -0.66382  -0.65833
 Alpha  occ. eigenvalues --   -0.64919  -0.63568  -0.62794  -0.62422  -0.61348
 Alpha  occ. eigenvalues --   -0.60113  -0.59586  -0.59423  -0.58890  -0.58814
 Alpha  occ. eigenvalues --   -0.58191  -0.57988  -0.57449  -0.56803  -0.56470
 Alpha  occ. eigenvalues --   -0.56323  -0.56173  -0.55911  -0.55594  -0.55419
 Alpha  occ. eigenvalues --   -0.55009  -0.54700  -0.54122  -0.53895  -0.53649
 Alpha  occ. eigenvalues --   -0.53192  -0.53087  -0.53021  -0.52670  -0.52513
 Alpha  occ. eigenvalues --   -0.52392  -0.52325  -0.52046  -0.51940  -0.51567
 Alpha  occ. eigenvalues --   -0.51418  -0.51208  -0.50824  -0.50689  -0.50386
 Alpha  occ. eigenvalues --   -0.50049  -0.49684  -0.49431  -0.49247  -0.49173
 Alpha  occ. eigenvalues --   -0.48009  -0.47784  -0.47562  -0.47280  -0.46993
 Alpha  occ. eigenvalues --   -0.46609  -0.46175  -0.45692  -0.45236  -0.44937
 Alpha  occ. eigenvalues --   -0.44514  -0.44387  -0.44223  -0.44016  -0.43523
 Alpha  occ. eigenvalues --   -0.43073  -0.42396  -0.41762  -0.41318  -0.41140
 Alpha  occ. eigenvalues --   -0.41061  -0.39364  -0.39192  -0.38637  -0.38364
 Alpha  occ. eigenvalues --   -0.37144  -0.36685  -0.34991  -0.34256  -0.33851
 Alpha  occ. eigenvalues --   -0.33432  -0.33162  -0.32929  -0.32713  -0.31554
 Alpha  occ. eigenvalues --   -0.30798  -0.29722  -0.29381
 Alpha virt. eigenvalues --   -0.24367  -0.18413  -0.17681  -0.14834  -0.11671
 Alpha virt. eigenvalues --   -0.10522  -0.07993  -0.07676  -0.06915  -0.06616
 Alpha virt. eigenvalues --   -0.05942  -0.05213  -0.04877  -0.04508  -0.04263
 Alpha virt. eigenvalues --   -0.03916  -0.03761  -0.03058  -0.02803  -0.02608
 Alpha virt. eigenvalues --   -0.02335  -0.01757  -0.01662  -0.01282  -0.01097
 Alpha virt. eigenvalues --   -0.00826  -0.00598  -0.00110   0.00236   0.00349
 Alpha virt. eigenvalues --    0.00466   0.00558   0.01200   0.01590   0.01854
 Alpha virt. eigenvalues --    0.02032   0.02649   0.03059   0.03230   0.03576
 Alpha virt. eigenvalues --    0.03647   0.03845   0.04139   0.04288   0.04353
 Alpha virt. eigenvalues --    0.04668   0.05044   0.05148   0.05355   0.05467
 Alpha virt. eigenvalues --    0.05576   0.05878   0.05940   0.06024   0.06594
 Alpha virt. eigenvalues --    0.06872   0.06960   0.07340   0.07572   0.07703
 Alpha virt. eigenvalues --    0.08193   0.08508   0.08587   0.08792   0.09057
 Alpha virt. eigenvalues --    0.09466   0.09529   0.09801   0.09957   0.10108
 Alpha virt. eigenvalues --    0.10147   0.10437   0.10824   0.11015   0.11458
 Alpha virt. eigenvalues --    0.11884   0.12133   0.12284   0.12665   0.12937
 Alpha virt. eigenvalues --    0.13131   0.13290   0.13359   0.13436   0.13654
 Alpha virt. eigenvalues --    0.14175   0.14283   0.14465   0.14700   0.14763
 Alpha virt. eigenvalues --    0.14934   0.15315   0.15410   0.15768   0.15937
 Alpha virt. eigenvalues --    0.15984   0.16188   0.16396   0.16511   0.16820
 Alpha virt. eigenvalues --    0.17083   0.17226   0.17514   0.17717   0.18028
 Alpha virt. eigenvalues --    0.18223   0.18307   0.18392   0.18600   0.18680
 Alpha virt. eigenvalues --    0.18936   0.19402   0.19490   0.19582   0.19910
 Alpha virt. eigenvalues --    0.20157   0.20464   0.20538   0.20887   0.21182
 Alpha virt. eigenvalues --    0.21361   0.21538   0.21811   0.21900   0.22334
 Alpha virt. eigenvalues --    0.22558   0.22608   0.22915   0.23292   0.23506
 Alpha virt. eigenvalues --    0.23737   0.23795   0.23958   0.24628   0.24805
 Alpha virt. eigenvalues --    0.24992   0.25112   0.25518   0.25641   0.26139
 Alpha virt. eigenvalues --    0.26316   0.26405   0.26605   0.26819   0.27273
 Alpha virt. eigenvalues --    0.27516   0.27782   0.28158   0.28545   0.28727
 Alpha virt. eigenvalues --    0.28984   0.29202   0.29464   0.29601   0.29613
 Alpha virt. eigenvalues --    0.29869   0.30216   0.30458   0.30753   0.31050
 Alpha virt. eigenvalues --    0.31146   0.31302   0.31485   0.31753   0.31817
 Alpha virt. eigenvalues --    0.32086   0.32222   0.32518   0.32735   0.32911
 Alpha virt. eigenvalues --    0.32987   0.33314   0.33559   0.33726   0.33961
 Alpha virt. eigenvalues --    0.34064   0.34364   0.34728   0.34863   0.35020
 Alpha virt. eigenvalues --    0.35079   0.35138   0.35342   0.35545   0.35978
 Alpha virt. eigenvalues --    0.36229   0.36446   0.36759   0.36922   0.36958
 Alpha virt. eigenvalues --    0.37182   0.37470   0.37666   0.37751   0.37930
 Alpha virt. eigenvalues --    0.38209   0.38448   0.38924   0.38995   0.39168
 Alpha virt. eigenvalues --    0.39286   0.39375   0.39706   0.39956   0.40207
 Alpha virt. eigenvalues --    0.40277   0.40514   0.40650   0.40823   0.40900
 Alpha virt. eigenvalues --    0.41033   0.41264   0.41338   0.41592   0.41700
 Alpha virt. eigenvalues --    0.41923   0.42187   0.42291   0.42617   0.42873
 Alpha virt. eigenvalues --    0.42969   0.43175   0.43351   0.43491   0.43716
 Alpha virt. eigenvalues --    0.43880   0.44196   0.44249   0.44373   0.44741
 Alpha virt. eigenvalues --    0.44862   0.45115   0.45229   0.45417   0.45615
 Alpha virt. eigenvalues --    0.45884   0.46017   0.46307   0.46736   0.46984
 Alpha virt. eigenvalues --    0.47067   0.47228   0.47419   0.47736   0.47838
 Alpha virt. eigenvalues --    0.48218   0.48576   0.48864   0.49043   0.49231
 Alpha virt. eigenvalues --    0.49307   0.49649   0.49791   0.50053   0.50229
 Alpha virt. eigenvalues --    0.50516   0.50623   0.50857   0.51145   0.51309
 Alpha virt. eigenvalues --    0.51761   0.51886   0.52335   0.52548   0.52591
 Alpha virt. eigenvalues --    0.53153   0.53324   0.53747   0.53933   0.54073
 Alpha virt. eigenvalues --    0.54426   0.54493   0.54793   0.54916   0.55259
 Alpha virt. eigenvalues --    0.55509   0.55814   0.55937   0.56145   0.56261
 Alpha virt. eigenvalues --    0.56619   0.56941   0.57140   0.57366   0.57570
 Alpha virt. eigenvalues --    0.57784   0.57885   0.58393   0.58470   0.58829
 Alpha virt. eigenvalues --    0.59235   0.59286   0.59796   0.59837   0.60312
 Alpha virt. eigenvalues --    0.60641   0.60670   0.60864   0.61352   0.61603
 Alpha virt. eigenvalues --    0.61945   0.62004   0.62121   0.62369   0.62580
 Alpha virt. eigenvalues --    0.63170   0.63528   0.63591   0.63813   0.64360
 Alpha virt. eigenvalues --    0.64779   0.64978   0.65303   0.65576   0.65827
 Alpha virt. eigenvalues --    0.66017   0.66259   0.66602   0.67171   0.67448
 Alpha virt. eigenvalues --    0.67691   0.67946   0.68133   0.68444   0.68654
 Alpha virt. eigenvalues --    0.69259   0.69565   0.69688   0.69859   0.70098
 Alpha virt. eigenvalues --    0.70478   0.70871   0.71067   0.71206   0.71531
 Alpha virt. eigenvalues --    0.71888   0.72471   0.72652   0.73159   0.73255
 Alpha virt. eigenvalues --    0.73868   0.74092   0.74469   0.74580   0.75073
 Alpha virt. eigenvalues --    0.75235   0.75637   0.75928   0.76216   0.76368
 Alpha virt. eigenvalues --    0.76651   0.77127   0.77346   0.77530   0.77743
 Alpha virt. eigenvalues --    0.77903   0.78268   0.78377   0.79304   0.79576
 Alpha virt. eigenvalues --    0.79606   0.79996   0.80248   0.80811   0.81330
 Alpha virt. eigenvalues --    0.81385   0.81522   0.82204   0.82283   0.82782
 Alpha virt. eigenvalues --    0.83131   0.83440   0.83885   0.84153   0.84445
 Alpha virt. eigenvalues --    0.84816   0.84882   0.85072   0.85654   0.86031
 Alpha virt. eigenvalues --    0.86072   0.86481   0.86888   0.87071   0.87378
 Alpha virt. eigenvalues --    0.87662   0.87908   0.88141   0.88995   0.89234
 Alpha virt. eigenvalues --    0.89318   0.89368   0.89959   0.90069   0.90568
 Alpha virt. eigenvalues --    0.90855   0.91017   0.91323   0.91684   0.92228
 Alpha virt. eigenvalues --    0.92594   0.92812   0.93032   0.93421   0.93669
 Alpha virt. eigenvalues --    0.94080   0.94642   0.94755   0.95055   0.95442
 Alpha virt. eigenvalues --    0.95520   0.95800   0.96056   0.96402   0.96689
 Alpha virt. eigenvalues --    0.97076   0.97407   0.97710   0.97868   0.98194
 Alpha virt. eigenvalues --    0.98490   0.98622   0.98887   0.99121   0.99354
 Alpha virt. eigenvalues --    0.99577   0.99861   1.00423   1.00661   1.01043
 Alpha virt. eigenvalues --    1.01124   1.01400   1.02018   1.02175   1.02495
 Alpha virt. eigenvalues --    1.02985   1.03719   1.03900   1.04235   1.04672
 Alpha virt. eigenvalues --    1.04958   1.05091   1.05821   1.06172   1.06474
 Alpha virt. eigenvalues --    1.06843   1.07239   1.07357   1.07712   1.08018
 Alpha virt. eigenvalues --    1.08435   1.08660   1.08917   1.09303   1.09689
 Alpha virt. eigenvalues --    1.10117   1.10594   1.11018   1.11415   1.12014
 Alpha virt. eigenvalues --    1.12352   1.12364   1.12927   1.13435   1.13969
 Alpha virt. eigenvalues --    1.14164   1.14875   1.15252   1.15668   1.15719
 Alpha virt. eigenvalues --    1.16101   1.16463   1.16971   1.17478   1.17717
 Alpha virt. eigenvalues --    1.18060   1.18584   1.18904   1.19060   1.19546
 Alpha virt. eigenvalues --    1.19754   1.20253   1.20778   1.20999   1.21475
 Alpha virt. eigenvalues --    1.21784   1.22029   1.22409   1.22607   1.23642
 Alpha virt. eigenvalues --    1.23798   1.24486   1.24860   1.25146   1.25373
 Alpha virt. eigenvalues --    1.26007   1.26615   1.27018   1.27395   1.28092
 Alpha virt. eigenvalues --    1.28376   1.28653   1.29211   1.29347   1.29616
 Alpha virt. eigenvalues --    1.29823   1.30332   1.30500   1.30848   1.31410
 Alpha virt. eigenvalues --    1.31541   1.31911   1.32531   1.33024   1.33337
 Alpha virt. eigenvalues --    1.33580   1.33905   1.34056   1.34598   1.34975
 Alpha virt. eigenvalues --    1.35191   1.35906   1.36614   1.36925   1.37054
 Alpha virt. eigenvalues --    1.37570   1.38012   1.38155   1.38399   1.38986
 Alpha virt. eigenvalues --    1.39188   1.39441   1.39759   1.40003   1.40378
 Alpha virt. eigenvalues --    1.40763   1.41061   1.41354   1.41445   1.42105
 Alpha virt. eigenvalues --    1.42514   1.42887   1.43057   1.43543   1.43840
 Alpha virt. eigenvalues --    1.43927   1.44364   1.44776   1.44910   1.45220
 Alpha virt. eigenvalues --    1.45380   1.45497   1.45705   1.45821   1.46389
 Alpha virt. eigenvalues --    1.46532   1.46735   1.46943   1.47284   1.47709
 Alpha virt. eigenvalues --    1.47770   1.48125   1.48350   1.48828   1.48925
 Alpha virt. eigenvalues --    1.49220   1.49439   1.49904   1.50122   1.50642
 Alpha virt. eigenvalues --    1.50853   1.51172   1.51397   1.51662   1.51787
 Alpha virt. eigenvalues --    1.52160   1.52541   1.52810   1.53144   1.53468
 Alpha virt. eigenvalues --    1.53750   1.53908   1.54356   1.54621   1.54656
 Alpha virt. eigenvalues --    1.55065   1.55189   1.55532   1.55857   1.56296
 Alpha virt. eigenvalues --    1.56662   1.56695   1.56947   1.57055   1.57368
 Alpha virt. eigenvalues --    1.57661   1.57950   1.58438   1.58544   1.59024
 Alpha virt. eigenvalues --    1.59161   1.59350   1.59649   1.59736   1.60337
 Alpha virt. eigenvalues --    1.60569   1.60959   1.61432   1.61724   1.61871
 Alpha virt. eigenvalues --    1.62593   1.62822   1.63090   1.63369   1.63838
 Alpha virt. eigenvalues --    1.64472   1.64672   1.64909   1.65286   1.65384
 Alpha virt. eigenvalues --    1.65738   1.66247   1.66774   1.66993   1.67084
 Alpha virt. eigenvalues --    1.67454   1.68066   1.68398   1.68637   1.69077
 Alpha virt. eigenvalues --    1.69168   1.69440   1.70292   1.71059   1.71666
 Alpha virt. eigenvalues --    1.71962   1.72381   1.72768   1.73003   1.73409
 Alpha virt. eigenvalues --    1.74054   1.74397   1.74548   1.75244   1.75415
 Alpha virt. eigenvalues --    1.75834   1.76528   1.76830   1.77035   1.77508
 Alpha virt. eigenvalues --    1.77866   1.78345   1.78476   1.78804   1.79186
 Alpha virt. eigenvalues --    1.79891   1.80345   1.80696   1.80861   1.81438
 Alpha virt. eigenvalues --    1.81742   1.81958   1.82211   1.82823   1.83001
 Alpha virt. eigenvalues --    1.83364   1.83950   1.84138   1.84770   1.84937
 Alpha virt. eigenvalues --    1.85081   1.85114   1.85553   1.86042   1.86488
 Alpha virt. eigenvalues --    1.87136   1.87678   1.87708   1.88079   1.88413
 Alpha virt. eigenvalues --    1.88696   1.89220   1.89336   1.89439   1.89961
 Alpha virt. eigenvalues --    1.90447   1.90773   1.91143   1.91296   1.91877
 Alpha virt. eigenvalues --    1.92160   1.92651   1.92861   1.93341   1.93655
 Alpha virt. eigenvalues --    1.94245   1.94429   1.94842   1.94993   1.96045
 Alpha virt. eigenvalues --    1.96243   1.96573   1.96961   1.97232   1.97646
 Alpha virt. eigenvalues --    1.98026   1.98324   1.98685   1.99370   1.99590
 Alpha virt. eigenvalues --    1.99833   2.00130   2.00824   2.01091   2.01102
 Alpha virt. eigenvalues --    2.01789   2.02247   2.02485   2.02724   2.03261
 Alpha virt. eigenvalues --    2.03417   2.03808   2.03987   2.04771   2.04934
 Alpha virt. eigenvalues --    2.05653   2.05938   2.06514   2.07023   2.07475
 Alpha virt. eigenvalues --    2.07861   2.08227   2.08878   2.09076   2.09324
 Alpha virt. eigenvalues --    2.09544   2.09746   2.10206   2.10863   2.11042
 Alpha virt. eigenvalues --    2.11296   2.11946   2.12288   2.12645   2.12756
 Alpha virt. eigenvalues --    2.13040   2.13745   2.13933   2.14989   2.15243
 Alpha virt. eigenvalues --    2.15550   2.16244   2.16294   2.16882   2.17103
 Alpha virt. eigenvalues --    2.17291   2.18006   2.18102   2.18694   2.18881
 Alpha virt. eigenvalues --    2.19529   2.19771   2.20144   2.20744   2.20837
 Alpha virt. eigenvalues --    2.21528   2.21753   2.22005   2.22062   2.22853
 Alpha virt. eigenvalues --    2.23750   2.23812   2.24439   2.24550   2.25072
 Alpha virt. eigenvalues --    2.25351   2.26001   2.26247   2.26559   2.26892
 Alpha virt. eigenvalues --    2.27023   2.27637   2.28166   2.28665   2.28870
 Alpha virt. eigenvalues --    2.29239   2.29478   2.30132   2.30499   2.30876
 Alpha virt. eigenvalues --    2.31330   2.31642   2.31902   2.32237   2.32827
 Alpha virt. eigenvalues --    2.33119   2.33359   2.33609   2.33994   2.34392
 Alpha virt. eigenvalues --    2.34944   2.35285   2.35672   2.35815   2.35913
 Alpha virt. eigenvalues --    2.37139   2.37470   2.37816   2.38089   2.38625
 Alpha virt. eigenvalues --    2.39017   2.39613   2.39982   2.40524   2.40734
 Alpha virt. eigenvalues --    2.41334   2.41669   2.42360   2.42697   2.43014
 Alpha virt. eigenvalues --    2.43374   2.43437   2.44152   2.44268   2.44749
 Alpha virt. eigenvalues --    2.44962   2.45344   2.45692   2.45904   2.46135
 Alpha virt. eigenvalues --    2.46779   2.46918   2.47883   2.48041   2.48517
 Alpha virt. eigenvalues --    2.48746   2.49293   2.49497   2.49697   2.50222
 Alpha virt. eigenvalues --    2.50512   2.50975   2.51055   2.51533   2.52028
 Alpha virt. eigenvalues --    2.52623   2.52651   2.52759   2.53266   2.53459
 Alpha virt. eigenvalues --    2.53568   2.54265   2.54757   2.54839   2.54878
 Alpha virt. eigenvalues --    2.55442   2.55579   2.55799   2.56147   2.56778
 Alpha virt. eigenvalues --    2.56860   2.57068   2.57491   2.57650   2.58092
 Alpha virt. eigenvalues --    2.58349   2.58753   2.59194   2.59315   2.60069
 Alpha virt. eigenvalues --    2.60203   2.60518   2.60671   2.61192   2.61452
 Alpha virt. eigenvalues --    2.61828   2.61957   2.62330   2.62510   2.63086
 Alpha virt. eigenvalues --    2.63172   2.63485   2.63936   2.64262   2.64383
 Alpha virt. eigenvalues --    2.64867   2.65209   2.65391   2.65759   2.66478
 Alpha virt. eigenvalues --    2.66706   2.67043   2.67348   2.68097   2.68367
 Alpha virt. eigenvalues --    2.68732   2.68823   2.69302   2.69487   2.69755
 Alpha virt. eigenvalues --    2.70351   2.70660   2.70799   2.71413   2.71679
 Alpha virt. eigenvalues --    2.72216   2.72807   2.73346   2.73610   2.73814
 Alpha virt. eigenvalues --    2.74241   2.74547   2.74995   2.75330   2.75821
 Alpha virt. eigenvalues --    2.76005   2.76196   2.76433   2.76953   2.76987
 Alpha virt. eigenvalues --    2.77453   2.77730   2.78148   2.78508   2.78820
 Alpha virt. eigenvalues --    2.79566   2.79829   2.79943   2.80195   2.80543
 Alpha virt. eigenvalues --    2.80830   2.81410   2.82228   2.82406   2.82999
 Alpha virt. eigenvalues --    2.83165   2.83877   2.84116   2.84436   2.84557
 Alpha virt. eigenvalues --    2.84972   2.85333   2.85704   2.85768   2.86209
 Alpha virt. eigenvalues --    2.86488   2.86693   2.87270   2.87332   2.87769
 Alpha virt. eigenvalues --    2.87976   2.88349   2.88593   2.88649   2.88919
 Alpha virt. eigenvalues --    2.89226   2.89882   2.90390   2.90457   2.90830
 Alpha virt. eigenvalues --    2.90902   2.91554   2.91644   2.91920   2.92072
 Alpha virt. eigenvalues --    2.92273   2.92622   2.92804   2.93305   2.93477
 Alpha virt. eigenvalues --    2.94014   2.94422   2.94579   2.95033   2.95529
 Alpha virt. eigenvalues --    2.96052   2.96226   2.96875   2.97143   2.97295
 Alpha virt. eigenvalues --    2.97541   2.98171   2.98413   2.98672   2.99192
 Alpha virt. eigenvalues --    2.99426   2.99871   2.99900   3.00302   3.00796
 Alpha virt. eigenvalues --    3.00869   3.01221   3.01481   3.01905   3.02057
 Alpha virt. eigenvalues --    3.02172   3.02495   3.02802   3.02949   3.03535
 Alpha virt. eigenvalues --    3.03602   3.04034   3.04266   3.04833   3.05011
 Alpha virt. eigenvalues --    3.05365   3.05925   3.05968   3.06334   3.06552
 Alpha virt. eigenvalues --    3.06867   3.07201   3.07562   3.07717   3.08052
 Alpha virt. eigenvalues --    3.08178   3.08477   3.08803   3.09092   3.09294
 Alpha virt. eigenvalues --    3.09599   3.10036   3.10346   3.10752   3.10856
 Alpha virt. eigenvalues --    3.11285   3.11508   3.11698   3.12226   3.12414
 Alpha virt. eigenvalues --    3.12710   3.13147   3.13396   3.13487   3.13623
 Alpha virt. eigenvalues --    3.13946   3.14675   3.14875   3.15069   3.15395
 Alpha virt. eigenvalues --    3.15820   3.16174   3.16575   3.16913   3.17052
 Alpha virt. eigenvalues --    3.17326   3.17481   3.17899   3.18038   3.18416
 Alpha virt. eigenvalues --    3.18542   3.18691   3.19094   3.19342   3.19506
 Alpha virt. eigenvalues --    3.19995   3.20168   3.20499   3.20571   3.21131
 Alpha virt. eigenvalues --    3.21508   3.21681   3.21900   3.22611   3.22799
 Alpha virt. eigenvalues --    3.22887   3.23367   3.23669   3.23913   3.24132
 Alpha virt. eigenvalues --    3.24502   3.24700   3.24857   3.25238   3.25470
 Alpha virt. eigenvalues --    3.25676   3.25917   3.26055   3.26275   3.26543
 Alpha virt. eigenvalues --    3.26650   3.27013   3.27275   3.27454   3.27934
 Alpha virt. eigenvalues --    3.28147   3.28335   3.28628   3.28820   3.29036
 Alpha virt. eigenvalues --    3.29198   3.29276   3.29626   3.29720   3.30288
 Alpha virt. eigenvalues --    3.30502   3.30705   3.30963   3.31179   3.31507
 Alpha virt. eigenvalues --    3.31769   3.32448   3.32607   3.32899   3.33401
 Alpha virt. eigenvalues --    3.33570   3.33688   3.34077   3.34118   3.34752
 Alpha virt. eigenvalues --    3.34969   3.35472   3.35961   3.36305   3.36434
 Alpha virt. eigenvalues --    3.36742   3.37145   3.37623   3.37837   3.38144
 Alpha virt. eigenvalues --    3.38177   3.38756   3.38970   3.39178   3.39542
 Alpha virt. eigenvalues --    3.40142   3.40760   3.41256   3.41371   3.41885
 Alpha virt. eigenvalues --    3.42135   3.42705   3.43097   3.43546   3.43647
 Alpha virt. eigenvalues --    3.44035   3.44271   3.45005   3.45210   3.45819
 Alpha virt. eigenvalues --    3.46028   3.46202   3.46719   3.46904   3.47512
 Alpha virt. eigenvalues --    3.47903   3.47974   3.48276   3.48674   3.49102
 Alpha virt. eigenvalues --    3.49502   3.50030   3.50393   3.50568   3.51014
 Alpha virt. eigenvalues --    3.51292   3.51880   3.52548   3.52763   3.53361
 Alpha virt. eigenvalues --    3.53665   3.53983   3.54650   3.55152   3.55535
 Alpha virt. eigenvalues --    3.56159   3.56241   3.56345   3.56528   3.57003
 Alpha virt. eigenvalues --    3.57534   3.57770   3.58146   3.58582   3.58851
 Alpha virt. eigenvalues --    3.59076   3.59427   3.59816   3.60627   3.60699
 Alpha virt. eigenvalues --    3.61128   3.61772   3.61855   3.62225   3.62547
 Alpha virt. eigenvalues --    3.62868   3.63223   3.63596   3.64062   3.64192
 Alpha virt. eigenvalues --    3.64581   3.64923   3.65128   3.65792   3.66095
 Alpha virt. eigenvalues --    3.66400   3.66504   3.67004   3.67313   3.67579
 Alpha virt. eigenvalues --    3.68114   3.68548   3.68740   3.68977   3.69248
 Alpha virt. eigenvalues --    3.69457   3.69912   3.70164   3.71316   3.71585
 Alpha virt. eigenvalues --    3.72621   3.72793   3.73621   3.73662   3.74327
 Alpha virt. eigenvalues --    3.74539   3.74757   3.75256   3.76331   3.76550
 Alpha virt. eigenvalues --    3.77015   3.77245   3.77787   3.77851   3.78995
 Alpha virt. eigenvalues --    3.79120   3.79534   3.79985   3.80320   3.80725
 Alpha virt. eigenvalues --    3.81054   3.81950   3.82311   3.82804   3.83515
 Alpha virt. eigenvalues --    3.83762   3.84641   3.84945   3.85286   3.85809
 Alpha virt. eigenvalues --    3.86307   3.87047   3.87452   3.88587   3.89039
 Alpha virt. eigenvalues --    3.89596   3.89945   3.90319   3.90692   3.90825
 Alpha virt. eigenvalues --    3.91548   3.92371   3.92541   3.92744   3.94051
 Alpha virt. eigenvalues --    3.94192   3.94977   3.95218   3.95586   3.95787
 Alpha virt. eigenvalues --    3.96393   3.96891   3.97218   3.97788   3.98528
 Alpha virt. eigenvalues --    3.99106   4.00250   4.01027   4.01168   4.01591
 Alpha virt. eigenvalues --    4.02290   4.02381   4.03056   4.04012   4.04225
 Alpha virt. eigenvalues --    4.05056   4.05317   4.05631   4.06101   4.06306
 Alpha virt. eigenvalues --    4.07023   4.07570   4.07987   4.08699   4.08993
 Alpha virt. eigenvalues --    4.09858   4.09928   4.10301   4.11481   4.11912
 Alpha virt. eigenvalues --    4.11972   4.12514   4.12913   4.13669   4.13891
 Alpha virt. eigenvalues --    4.14383   4.14759   4.16015   4.16369   4.16438
 Alpha virt. eigenvalues --    4.16859   4.17292   4.18177   4.18850   4.19434
 Alpha virt. eigenvalues --    4.20594   4.21251   4.21490   4.21998   4.22601
 Alpha virt. eigenvalues --    4.22813   4.23176   4.24164   4.24738   4.25003
 Alpha virt. eigenvalues --    4.25781   4.26215   4.26564   4.26974   4.27303
 Alpha virt. eigenvalues --    4.27883   4.28311   4.29158   4.29458   4.29730
 Alpha virt. eigenvalues --    4.30569   4.30833   4.31863   4.32484   4.33403
 Alpha virt. eigenvalues --    4.33462   4.34161   4.34655   4.35298   4.35630
 Alpha virt. eigenvalues --    4.36242   4.37225   4.37329   4.37640   4.38712
 Alpha virt. eigenvalues --    4.39081   4.39561   4.39876   4.40346   4.41087
 Alpha virt. eigenvalues --    4.41751   4.42029   4.43341   4.43612   4.45279
 Alpha virt. eigenvalues --    4.45610   4.45934   4.46793   4.47394   4.47884
 Alpha virt. eigenvalues --    4.47956   4.48729   4.49515   4.50061   4.50984
 Alpha virt. eigenvalues --    4.52157   4.53260   4.54118   4.55740   4.55853
 Alpha virt. eigenvalues --    4.56879   4.57123   4.58103   4.59150   4.59520
 Alpha virt. eigenvalues --    4.60080   4.60597   4.60920   4.62093   4.62572
 Alpha virt. eigenvalues --    4.63602   4.63845   4.64140   4.64909   4.65743
 Alpha virt. eigenvalues --    4.67518   4.68249   4.68948   4.69173   4.69386
 Alpha virt. eigenvalues --    4.70482   4.71500   4.71735   4.72070   4.73135
 Alpha virt. eigenvalues --    4.73500   4.74066   4.75154   4.75377   4.76940
 Alpha virt. eigenvalues --    4.77394   4.78243   4.79364   4.80108   4.80360
 Alpha virt. eigenvalues --    4.81027   4.81350   4.82076   4.82511   4.82926
 Alpha virt. eigenvalues --    4.83741   4.84973   4.85690   4.86534   4.87127
 Alpha virt. eigenvalues --    4.87454   4.87960   4.89300   4.91837   4.91915
 Alpha virt. eigenvalues --    4.92436   4.92766   4.93365   4.94732   4.95221
 Alpha virt. eigenvalues --    4.96239   4.97091   4.97466   4.98681   4.99937
 Alpha virt. eigenvalues --    5.00094   5.00605   5.01276   5.01602   5.02232
 Alpha virt. eigenvalues --    5.02799   5.03162   5.03881   5.05631   5.06461
 Alpha virt. eigenvalues --    5.07807   5.08979   5.10964   5.11076   5.11111
 Alpha virt. eigenvalues --    5.11637   5.11893   5.12169   5.12942   5.14777
 Alpha virt. eigenvalues --    5.15383   5.15577   5.16681   5.17108   5.17859
 Alpha virt. eigenvalues --    5.18522   5.18799   5.19285   5.19516   5.20578
 Alpha virt. eigenvalues --    5.21763   5.22030   5.22564   5.23956   5.27871
 Alpha virt. eigenvalues --    5.28357   5.29353   5.29860   5.30412   5.31320
 Alpha virt. eigenvalues --    5.32895   5.33161   5.33668   5.34076   5.35043
 Alpha virt. eigenvalues --    5.36256   5.36884   5.37677   5.39257   5.40149
 Alpha virt. eigenvalues --    5.40631   5.42000   5.42371   5.44141   5.45431
 Alpha virt. eigenvalues --    5.46622   5.46965   5.48885   5.49132   5.50860
 Alpha virt. eigenvalues --    5.51442   5.52178   5.52793   5.54300   5.54929
 Alpha virt. eigenvalues --    5.55310   5.56610   5.57607   5.59463   5.60185
 Alpha virt. eigenvalues --    5.60345   5.61454   5.62878   5.63705   5.63998
 Alpha virt. eigenvalues --    5.65470   5.66409   5.68932   5.70411   5.70833
 Alpha virt. eigenvalues --    5.73361   5.74529   5.76973   5.78055   5.79154
 Alpha virt. eigenvalues --    5.79549   5.80102   5.87239   5.87991   5.90768
 Alpha virt. eigenvalues --    5.92085   5.94075   5.95186   5.96341   5.99781
 Alpha virt. eigenvalues --    6.03579   6.04581   6.05140   6.05641   6.06765
 Alpha virt. eigenvalues --    6.08675   6.09447   6.16037   6.16671   6.17198
 Alpha virt. eigenvalues --    6.19511   6.20900   6.27581   6.29417   6.30162
 Alpha virt. eigenvalues --    6.31896   6.32019   6.34581   6.36513   6.38768
 Alpha virt. eigenvalues --    6.39163   6.39402   6.41672   6.42306   6.43530
 Alpha virt. eigenvalues --    6.45775   6.47608   6.48772   6.59477   6.61907
 Alpha virt. eigenvalues --    6.62069   6.71749   6.76265   6.79112   6.80775
 Alpha virt. eigenvalues --    6.91593   6.92879   6.97863   7.00828   7.02520
 Alpha virt. eigenvalues --    7.03871   7.08898   7.10726   7.14937   7.16305
 Alpha virt. eigenvalues --    7.23146   7.27862  22.22483  22.27232  22.38550
 Alpha virt. eigenvalues --   22.40906  22.46113  22.46944  22.48392  22.57013
 Alpha virt. eigenvalues --   22.59214  22.65117  22.65956  22.68825  22.69626
 Alpha virt. eigenvalues --   22.80516  22.86465  22.87793  22.88481  22.92467
 Alpha virt. eigenvalues --   22.98329  22.99513  23.01929  23.09597  23.10403
 Alpha virt. eigenvalues --   23.25799  23.28033  23.31741  23.34936  23.41057
 Alpha virt. eigenvalues --   23.43123  23.45728  23.46926  23.51552  23.61505
 Alpha virt. eigenvalues --   23.70042  23.72355  23.84968  23.87009  23.99037
 Alpha virt. eigenvalues --   32.41672  32.62910  32.88254  32.93138  32.94476
 Alpha virt. eigenvalues --   33.05810  43.87886  43.92263  43.92982  43.95486
 Alpha virt. eigenvalues --   44.02578
  Beta  occ. eigenvalues -- -256.44171 -30.21050 -26.04027 -26.03649 -26.03118
  Beta  occ. eigenvalues --  -19.31735 -19.31338 -19.31158 -19.23217 -19.22871
  Beta  occ. eigenvalues --  -14.54766 -14.50028 -14.49621 -14.47885 -14.46354
  Beta  occ. eigenvalues --  -14.46342 -10.40613 -10.40254 -10.37747 -10.37529
  Beta  occ. eigenvalues --  -10.36691 -10.36480 -10.35843 -10.35777 -10.35630
  Beta  occ. eigenvalues --  -10.35359 -10.35184 -10.34352 -10.34063 -10.34021
  Beta  occ. eigenvalues --  -10.34009 -10.33857 -10.33678 -10.32937 -10.32933
  Beta  occ. eigenvalues --  -10.32669 -10.32621 -10.32539 -10.32536 -10.32326
  Beta  occ. eigenvalues --  -10.31819 -10.31662 -10.31660 -10.31567 -10.31449
  Beta  occ. eigenvalues --  -10.31436 -10.31342 -10.30892 -10.30543 -10.30451
  Beta  occ. eigenvalues --  -10.30264 -10.29893 -10.29757 -10.29481  -3.56097
  Beta  occ. eigenvalues --   -2.32647  -2.31561  -2.30621  -1.23610  -1.23567
  Beta  occ. eigenvalues --   -1.18958  -1.15113  -1.12477  -1.11131  -1.10093
  Beta  occ. eigenvalues --   -1.09517  -1.09183  -1.08263  -1.03297  -0.96605
  Beta  occ. eigenvalues --   -0.95122  -0.94594  -0.92792  -0.92357  -0.92155
  Beta  occ. eigenvalues --   -0.91820  -0.90636  -0.89477  -0.88112  -0.87453
  Beta  occ. eigenvalues --   -0.87159  -0.86011  -0.84976  -0.83224  -0.82328
  Beta  occ. eigenvalues --   -0.82006  -0.81633  -0.80350  -0.77807  -0.77410
  Beta  occ. eigenvalues --   -0.76794  -0.76521  -0.76352  -0.74395  -0.73414
  Beta  occ. eigenvalues --   -0.73143  -0.72958  -0.71490  -0.69997  -0.69328
  Beta  occ. eigenvalues --   -0.67591  -0.67066  -0.66973  -0.66186  -0.65763
  Beta  occ. eigenvalues --   -0.64697  -0.63544  -0.62779  -0.62409  -0.61099
  Beta  occ. eigenvalues --   -0.60100  -0.59517  -0.59407  -0.58879  -0.58476
  Beta  occ. eigenvalues --   -0.58168  -0.57611  -0.57430  -0.56812  -0.56374
  Beta  occ. eigenvalues --   -0.56324  -0.55774  -0.55666  -0.55485  -0.55286
  Beta  occ. eigenvalues --   -0.54970  -0.54638  -0.54103  -0.53852  -0.53618
  Beta  occ. eigenvalues --   -0.53192  -0.53086  -0.52899  -0.52659  -0.52373
  Beta  occ. eigenvalues --   -0.52293  -0.52233  -0.52009  -0.51807  -0.51562
  Beta  occ. eigenvalues --   -0.51392  -0.51013  -0.50823  -0.50676  -0.50348
  Beta  occ. eigenvalues --   -0.50025  -0.49674  -0.49402  -0.49195  -0.48863
  Beta  occ. eigenvalues --   -0.48012  -0.47766  -0.47556  -0.47133  -0.46898
  Beta  occ. eigenvalues --   -0.46601  -0.46117  -0.45707  -0.44996  -0.44871
  Beta  occ. eigenvalues --   -0.44562  -0.44470  -0.44157  -0.43876  -0.43457
  Beta  occ. eigenvalues --   -0.43109  -0.42406  -0.41403  -0.41099  -0.41091
  Beta  occ. eigenvalues --   -0.40260  -0.39369  -0.39227  -0.38392  -0.38330
  Beta  occ. eigenvalues --   -0.37220  -0.35584  -0.35149  -0.33945  -0.33652
  Beta  occ. eigenvalues --   -0.33391  -0.33072  -0.32977  -0.31705  -0.31167
  Beta  occ. eigenvalues --   -0.31107  -0.29591
  Beta virt. eigenvalues --   -0.23903  -0.18401  -0.18301  -0.16668  -0.14823
  Beta virt. eigenvalues --   -0.11471  -0.10603  -0.08436  -0.07794  -0.06938
  Beta virt. eigenvalues --   -0.06648  -0.05946  -0.05142  -0.04812  -0.04509
  Beta virt. eigenvalues --   -0.04276  -0.03847  -0.03736  -0.03073  -0.02673
  Beta virt. eigenvalues --   -0.02492  -0.02338  -0.01703  -0.01648  -0.01192
  Beta virt. eigenvalues --   -0.01112  -0.00638  -0.00565  -0.00118   0.00318
  Beta virt. eigenvalues --    0.00354   0.00532   0.00616   0.01301   0.01605
  Beta virt. eigenvalues --    0.02014   0.02065   0.02653   0.03089   0.03295
  Beta virt. eigenvalues --    0.03617   0.03722   0.03895   0.04167   0.04323
  Beta virt. eigenvalues --    0.04395   0.04681   0.05093   0.05318   0.05370
  Beta virt. eigenvalues --    0.05534   0.05591   0.05888   0.05982   0.06076
  Beta virt. eigenvalues --    0.06696   0.06920   0.07011   0.07363   0.07631
  Beta virt. eigenvalues --    0.07793   0.08324   0.08577   0.08749   0.08940
  Beta virt. eigenvalues --    0.09345   0.09561   0.09897   0.09988   0.10076
  Beta virt. eigenvalues --    0.10142   0.10431   0.10780   0.10965   0.11059
  Beta virt. eigenvalues --    0.11619   0.11898   0.12228   0.12423   0.12828
  Beta virt. eigenvalues --    0.12961   0.13155   0.13352   0.13413   0.13555
  Beta virt. eigenvalues --    0.13860   0.14218   0.14386   0.14536   0.14813
  Beta virt. eigenvalues --    0.14867   0.15061   0.15454   0.15598   0.15874
  Beta virt. eigenvalues --    0.16081   0.16245   0.16326   0.16583   0.16774
  Beta virt. eigenvalues --    0.16923   0.17225   0.17522   0.17764   0.17907
  Beta virt. eigenvalues --    0.18137   0.18311   0.18481   0.18566   0.18701
  Beta virt. eigenvalues --    0.18955   0.19040   0.19506   0.19556   0.19654
  Beta virt. eigenvalues --    0.20042   0.20481   0.20540   0.20899   0.21266
  Beta virt. eigenvalues --    0.21350   0.21545   0.21856   0.21945   0.22089
  Beta virt. eigenvalues --    0.22462   0.22608   0.22720   0.22978   0.23409
  Beta virt. eigenvalues --    0.23566   0.23777   0.23888   0.24037   0.24646
  Beta virt. eigenvalues --    0.24899   0.25019   0.25291   0.25597   0.25731
  Beta virt. eigenvalues --    0.26180   0.26368   0.26454   0.26625   0.26911
  Beta virt. eigenvalues --    0.27348   0.27594   0.27988   0.28197   0.28590
  Beta virt. eigenvalues --    0.28799   0.29169   0.29245   0.29579   0.29640
  Beta virt. eigenvalues --    0.29670   0.30000   0.30270   0.30531   0.30782
  Beta virt. eigenvalues --    0.31107   0.31236   0.31333   0.31583   0.31776
  Beta virt. eigenvalues --    0.31872   0.32142   0.32315   0.32557   0.32767
  Beta virt. eigenvalues --    0.32969   0.33048   0.33365   0.33659   0.33774
  Beta virt. eigenvalues --    0.33994   0.34345   0.34441   0.34833   0.34892
  Beta virt. eigenvalues --    0.35141   0.35217   0.35230   0.35415   0.35571
  Beta virt. eigenvalues --    0.36039   0.36277   0.36511   0.36872   0.36965
  Beta virt. eigenvalues --    0.37080   0.37238   0.37556   0.37749   0.37850
  Beta virt. eigenvalues --    0.38014   0.38253   0.38533   0.38982   0.39129
  Beta virt. eigenvalues --    0.39235   0.39448   0.39558   0.39967   0.39981
  Beta virt. eigenvalues --    0.40272   0.40431   0.40531   0.40823   0.40921
  Beta virt. eigenvalues --    0.41048   0.41273   0.41375   0.41501   0.41761
  Beta virt. eigenvalues --    0.41789   0.42013   0.42230   0.42541   0.42699
  Beta virt. eigenvalues --    0.42959   0.43048   0.43182   0.43383   0.43575
  Beta virt. eigenvalues --    0.43760   0.43981   0.44223   0.44305   0.44425
  Beta virt. eigenvalues --    0.44873   0.44907   0.45146   0.45265   0.45464
  Beta virt. eigenvalues --    0.45627   0.45904   0.46048   0.46334   0.46749
  Beta virt. eigenvalues --    0.47055   0.47119   0.47435   0.47465   0.47769
  Beta virt. eigenvalues --    0.47862   0.48279   0.48636   0.48910   0.49131
  Beta virt. eigenvalues --    0.49249   0.49408   0.49696   0.49811   0.50112
  Beta virt. eigenvalues --    0.50283   0.50539   0.50694   0.50966   0.51311
  Beta virt. eigenvalues --    0.51536   0.51817   0.51930   0.52411   0.52612
  Beta virt. eigenvalues --    0.52678   0.53179   0.53376   0.53799   0.54028
  Beta virt. eigenvalues --    0.54119   0.54513   0.54616   0.54853   0.55070
  Beta virt. eigenvalues --    0.55336   0.55570   0.55858   0.56020   0.56175
  Beta virt. eigenvalues --    0.56317   0.56665   0.57011   0.57169   0.57383
  Beta virt. eigenvalues --    0.57669   0.57818   0.57957   0.58410   0.58549
  Beta virt. eigenvalues --    0.58938   0.59258   0.59374   0.59848   0.59863
  Beta virt. eigenvalues --    0.60333   0.60659   0.60679   0.60911   0.61391
  Beta virt. eigenvalues --    0.61635   0.61963   0.62029   0.62145   0.62414
  Beta virt. eigenvalues --    0.62648   0.63214   0.63547   0.63631   0.63850
  Beta virt. eigenvalues --    0.64391   0.64826   0.65004   0.65443   0.65589
  Beta virt. eigenvalues --    0.65886   0.66101   0.66311   0.66669   0.67219
  Beta virt. eigenvalues --    0.67483   0.67733   0.67993   0.68185   0.68575
  Beta virt. eigenvalues --    0.68687   0.69280   0.69601   0.69766   0.69906
  Beta virt. eigenvalues --    0.70275   0.70482   0.70904   0.71149   0.71236
  Beta virt. eigenvalues --    0.71558   0.71985   0.72493   0.72927   0.73202
  Beta virt. eigenvalues --    0.73389   0.73912   0.74372   0.74516   0.74827
  Beta virt. eigenvalues --    0.75258   0.75419   0.75928   0.76076   0.76251
  Beta virt. eigenvalues --    0.76472   0.76794   0.77254   0.77435   0.77700
  Beta virt. eigenvalues --    0.77827   0.78150   0.78317   0.78458   0.79479
  Beta virt. eigenvalues --    0.79683   0.79931   0.80074   0.80345   0.80883
  Beta virt. eigenvalues --    0.81353   0.81543   0.81616   0.82298   0.82312
  Beta virt. eigenvalues --    0.82862   0.83213   0.83507   0.83940   0.84276
  Beta virt. eigenvalues --    0.84461   0.84917   0.85118   0.85180   0.85711
  Beta virt. eigenvalues --    0.86011   0.86194   0.86638   0.87034   0.87144
  Beta virt. eigenvalues --    0.87484   0.87785   0.88192   0.88206   0.89120
  Beta virt. eigenvalues --    0.89280   0.89359   0.89410   0.90040   0.90308
  Beta virt. eigenvalues --    0.90610   0.90972   0.91096   0.91461   0.91710
  Beta virt. eigenvalues --    0.92610   0.92735   0.92929   0.93263   0.93631
  Beta virt. eigenvalues --    0.93771   0.94224   0.94720   0.94937   0.95195
  Beta virt. eigenvalues --    0.95575   0.95819   0.95880   0.96267   0.96494
  Beta virt. eigenvalues --    0.96808   0.97174   0.97547   0.97871   0.97961
  Beta virt. eigenvalues --    0.98273   0.98572   0.98774   0.99103   0.99297
  Beta virt. eigenvalues --    0.99391   0.99861   1.00213   1.00489   1.00850
  Beta virt. eigenvalues --    1.01151   1.01228   1.01573   1.02125   1.02228
  Beta virt. eigenvalues --    1.02727   1.03112   1.03910   1.04013   1.04246
  Beta virt. eigenvalues --    1.04815   1.05039   1.05271   1.06002   1.06160
  Beta virt. eigenvalues --    1.06524   1.06812   1.07255   1.07426   1.07776
  Beta virt. eigenvalues --    1.08115   1.08563   1.08694   1.08963   1.09368
  Beta virt. eigenvalues --    1.09830   1.10173   1.10659   1.11103   1.11476
  Beta virt. eigenvalues --    1.12088   1.12402   1.12591   1.13042   1.13482
  Beta virt. eigenvalues --    1.14000   1.14293   1.15029   1.15345   1.15730
  Beta virt. eigenvalues --    1.15745   1.16146   1.16534   1.17069   1.17569
  Beta virt. eigenvalues --    1.17755   1.18164   1.18614   1.18948   1.19175
[...]
  1620. RY*(   2) H  75                  0.00007     1.31391   
  1621. RY*(   3) H  75                  0.00005     2.45517   
  1622. RY*(   4) H  75                  0.00002     2.43262   
  1623. RY*(   5) H  75                  0.00002     2.54273   
  1624. RY*(   1) H  76                  0.00095     0.63243   
  1625. RY*(   2) H  76                  0.00015     2.07184   
  1626. RY*(   3) H  76                  0.00013     2.16577   
  1627. RY*(   4) H  76                  0.00006     3.04013   
  1628. RY*(   5) H  76                  0.00001     3.15878   
  1629. RY*(   1) H  77                  0.00042     0.90468   
  1630. RY*(   2) H  77                  0.00008     1.67445   
  1631. RY*(   3) H  77                  0.00003     2.06688   
  1632. RY*(   4) H  77                  0.00003     2.03134   
  1633. RY*(   5) H  77                  0.00000     2.86997   
  1634. RY*(   1) H  78                  0.00042     0.93923   
  1635. RY*(   2) H  78                  0.00008     1.67615   
  1636. RY*(   3) H  78                  0.00003     2.08606   
  1637. RY*(   4) H  78                  0.00003     1.94076   
  1638. RY*(   5) H  78                  0.00000     2.85003   
  1639. RY*(   1) H  79                  0.00024     1.25861   
  1640. RY*(   2) H  79                  0.00008     1.89769   
  1641. RY*(   3) H  79                  0.00004     2.03730   
  1642. RY*(   4) H  79                  0.00001     2.06598   
  1643. RY*(   5) H  79                  0.00000     2.47323   
  1644. RY*(   1) H  80                  0.00070     0.61987   
  1645. RY*(   2) H  80                  0.00016     2.21029   
  1646. RY*(   3) H  80                  0.00012     2.18574   
  1647. RY*(   4) H  80                  0.00005     3.05029   
  1648. RY*(   5) H  80                  0.00000     3.19930   
  1649. RY*(   1) H  81                  0.00041     1.62726   
  1650. RY*(   2) H  81                  0.00008     2.65173   
  1651. RY*(   3) H  81                  0.00006     2.23650   
  1652. RY*(   4) H  81                  0.00003     1.53504   
  1653. RY*(   5) H  81                  0.00000     2.86318   
  1654. RY*(   1) H  82                  0.00061     0.53351   
  1655. RY*(   2) H  82                  0.00007     2.24095   
  1656. RY*(   3) H  82                  0.00007     2.62264   
  1657. RY*(   4) H  82                  0.00007     2.40035   
  1658. RY*(   5) H  82                  0.00000     2.98380   
  1659. RY*(   1) H  83                  0.00031     1.21698   
  1660. RY*(   2) H  83                  0.00007     2.16260   
  1661. RY*(   3) H  83                  0.00005     1.59345   
  1662. RY*(   4) H  83                  0.00003     2.40949   
  1663. RY*(   5) H  83                  0.00000     2.88347   
  1664. RY*(   1) H  84                  0.00034     1.28244   
  1665. RY*(   2) H  84                  0.00006     1.42268   
  1666. RY*(   3) H  84                  0.00006     2.50019   
  1667. RY*(   4) H  84                  0.00004     2.26933   
  1668. RY*(   5) H  84                  0.00001     2.96014   
  1669. RY*(   1) H  85                  0.00044     0.75208   
  1670. RY*(   2) H  85                  0.00040     1.93656   
  1671. RY*(   3) H  85                  0.00022     1.95152   
  1672. RY*(   4) H  85                  0.00012     2.13017   
  1673. RY*(   5) H  85                  0.00000     3.13837   
  1713. BD*(   1) C   9 - C  14          0.01162     0.45828   
  1714. BD*(   1) C   9 - C  44          0.01192     0.46098   
  1715. BD*(   1) C   9 - H  80          0.00560     0.35726   
  1716. BD*(   1) C  10 - C  17          0.01197     0.45887   
  1717. BD*(   2) C  10 - C  17          0.18358    -0.05694  1732(v),1750(v),1728(v)
                                                    412(g)
  1718. BD*(   1) C  10 - C  25          0.01201     0.45091   
  1719. BD*(   1) C  10 - H  60          0.00603     0.35338   
  1720. BD*(   1) C  11 - C  28          0.01149     0.44863   
  1721. BD*(   1) C  11 - C  33          0.01137     0.43628   
  1722. BD*(   1) C  11 - H  67          0.00578     0.34821   
  1723. BD*(   1) C  12 - C  36          0.01213     0.43846   
  1724. BD*(   1) C  12 - C  41          0.01213     0.49486   
  1725. BD*(   2) C  12 - C  41          0.19772    -0.05541  1786(v),1783(v),188(v)
                                                    464(g),1222(g),175(r)
  1726. BD*(   1) C  12 - H  76          0.00708     0.34458   
  1727. BD*(   1) N  13 - C  14          0.01417     0.45776   
  1728. BD*(   2) N  13 - C  14          0.28567    -0.07469  1717(v),1732(v),1783(r)
                                                    518(g),490(g),175(r),519(g)
                                                    171(r),1709(r),1803(r)
  1729. BD*(   1) N  13 - C  17          0.01411     0.45343   
  1730. BD*(   1) C  14 - C  15          0.01455     0.48054   
  1731. BD*(   1) C  15 - C  16          0.01161     0.46328   
  1732. BD*(   2) C  15 - C  16          0.12370    -0.03523  1717(v),1728(v),1739(v)
                                                    1736(v),1737(v)
  1733. BD*(   1) C  15 - C  19          0.01195     0.30283   
  1734. BD*(   1) C  16 - C  17          0.01481     0.49125   
  1735. BD*(   1) C  16 - C  18          0.00821     0.29356   
  1736. BD*(   1) C  18 - H  57          0.00412     0.32696   
  1737. BD*(   1) C  18 - H  58          0.00347     0.32671   
  1738. BD*(   1) C  18 - H  59          0.00253     0.33473   
  1739. BD*(   1) C  19 - C  20          0.00808     0.30096   
  1740. BD*(   1) C  19 - H  55          0.00727     0.33584   
  1741. BD*(   1) C  19 - H  56          0.00800     0.32813   
  1742. BD*(   1) C  20 - C  21          0.03642     0.27057   
  1743. BD*(   1) C  20 - H  53          0.00525     0.33690   
  1744. BD*(   1) C  20 - H  54          0.00661     0.32196   
  1745. BD*(   1) C  21 - O  22          0.03452     0.46820   
  1746. BD*(   1) C  21 - O  23          0.02058     0.52287   
  1747. BD*(   2) C  21 - O  23          0.10028    -0.03761  1746(g),1748(v),1739(v)
                                                    1744(v),709(g)
  1748. BD*(   1) O  22 - H  52          0.00703     0.32412   
  1749. BD*(   1) N  24 - C  25          0.01467     0.44726   
  1750. BD*(   2) N  24 - C  25          0.30213    -0.09790  1717(v),1754(v),184(v)
                                                    804(g),1709(r),776(g),805(g)
                                                    175(r),780(g),171(r),1804(r)
  1751. BD*(   1) N  24 - C  28          0.01404     0.44204   
  1752. BD*(   1) C  25 - C  26          0.01641     0.44367   
  1753. BD*(   1) C  26 - C  27          0.01804     0.44589   
  1754. BD*(   2) C  26 - C  27          0.15105    -0.05184  1750(v),184(v),1762(v)
                                                    1763(v),1758(v),1759(v)
  1755. BD*(   1) C  26 - C  29          0.00802     0.26292   
  1756. BD*(   1) C  27 - C  28          0.02159     0.45111   
  1757. BD*(   1) C  27 - C  30          0.01215     0.43953   
  1758. BD*(   1) C  29 - H  61          0.00430     0.31473   
  1759. BD*(   1) C  29 - H  62          0.00390     0.31459   
  1760. BD*(   1) C  29 - H  63          0.00421     0.33014   
  1761. BD*(   1) C  30 - C  31          0.00331     0.43752   
  1762. BD*(   2) C  30 - C  31          0.04519    -0.09807   
  1763. BD*(   1) C  30 - H  64          0.00951     0.33055   
  1764. BD*(   1) C  31 - H  65          0.00368     0.33312   
  1765. BD*(   1) C  31 - H  66          0.00691     0.35610   
  1766. BD*(   1) N  32 - C  33          0.01411     0.40343   
  1767. BD*(   2) N  32 - C  33          0.35640    -0.11572  186(v),177(v),188(v),1011(g)
                                                    984(g),439(v),175(r),1709(r)
  1768. BD*(   1) N  32 - C  36          0.01257     0.44458   
  1769. BD*(   1) C  33 - C  34          0.01538     0.42154   
  1770. BD*(   1) C  34 - C  35          0.01463     0.42218   
  1771. BD*(   1) C  34 - C  37          0.00722     0.24543   
  1772. BD*(   1) C  35 - C  36          0.01682     0.42878   
  1773. BD*(   1) C  35 - C  38          0.01035     0.40122   
  1774. BD*(   1) C  37 - H  68          0.00235     0.30678   
  1775. BD*(   1) C  37 - H  69          0.00361     0.30310   
  1776. BD*(   1) C  37 - H  70          0.00258     0.30725   
  1777. BD*(   1) C  38 - C  39          0.00374     0.38038   
  1778. BD*(   1) C  38 - H  75          0.00672     0.27797   
  1779. BD*(   1) C  39 - H  73          0.00187     0.30737   
  1780. BD*(   1) C  39 - H  74          0.00336     0.30895   
  1781. BD*(   1) N  40 - C  41          0.01413     0.46431   
  1782. BD*(   1) N  40 - C  44          0.01337     0.46779   
  1783. BD*(   2) N  40 - C  44          0.29849    -0.07853  1725(v),1786(v),1728(r)
                                                    1298(g),1192(g),170(r)
                                                    175(r),172(r),171(r),173(r)
                                                    174(r)
  1784. BD*(   1) C  41 - C  42          0.01624     0.48202   
  1785. BD*(   1) C  42 - C  43          0.01176     0.46828   
  1786. BD*(   2) C  42 - C  43          0.12062    -0.03482  1725(v),1783(v),1793(v)
                                                    1790(v),1791(v)
  1787. BD*(   1) C  42 - C  45          0.00812     0.30306   
  1788. BD*(   1) C  43 - C  44          0.01542     0.47873   
  1789. BD*(   1) C  43 - C  46          0.01144     0.30996   
  1790. BD*(   1) C  45 - H  77          0.00438     0.32242   
  1791. BD*(   1) C  45 - H  78          0.00389     0.32175   
  1792. BD*(   1) C  45 - H  79          0.00262     0.32480   
  1793. BD*(   1) C  46 - C  47          0.00886     0.28879   
  1794. BD*(   1) C  46 - H  81          0.00669     0.33332   
  1795. BD*(   1) C  46 - H  82          0.00695     0.33056   
  1796. BD*(   1) C  47 - C  48          0.04041     0.29324   
  1797. BD*(   1) C  47 - H  83          0.00612     0.31934   
  1798. BD*(   1) C  47 - H  84          0.00532     0.33718   
  1799. BD*(   1) C  48 - O  49          0.01979     0.56541   
  1800. BD*(   2) C  48 - O  49          0.08510    -0.04022   
  1801. BD*(   1) C  48 - O  50          0.03616     0.47899   
  1802. BD*(   1) O  50 - H  85          0.00702     0.31467   
       -------------------------------
              Total Lewis  142.64582  ( 96.8073%)
        Valence non-Lewis    4.39509  (  2.9828%)
        Rydberg non-Lewis    0.30936  (  0.2099%)
       -------------------------------
            Total unit  3  147.35027  (100.0000%)
           Charge unit  3    0.64973

 Molecular unit  4  (H2O)
   105. BD (   1) O  51 - H  71          0.99817    -0.87294  175(r),361(r),171(r),172(r)
                                                    494(r),362(r),360(r),493(r)
                                                    331(r),330(r),490(r),1193(r)
                                                    364(r),498(r)
   106. BD (   1) O  51 - H  72          0.98476    -0.89454  175(r),172(r),173(r),171(r)
                                                    1601(v),360(r),174(r),361(r)
                                                    328(r),365(r),359(r),363(r)
                                                    368(r),778(r),493(r),779(r)
                                                    492(r),1192(r),364(r)
                                                    1751(r),329(r),331(r),490(r)
   164. CR (   1) O  51                  0.99992   -19.10247  175(r),172(r),171(r),1604(v)
                                                    1601(v),173(r)
   196. LP (   1) O  51                  0.99438    -0.57726  175(r),174(r),1605(v),172(r)
                                                    1599(v),173(r),170(r),363(r)
                                                    364(r),1728(r),329(r),984(r)
                                                    492(r),331(r),777(r),368(r)
                                                    493(r),1750(r),361(r),499(r)
                                                    171(r)
   197. LP (   2) O  51                  0.92960    -0.54869  175(r),172(r),1804(g),171(r)
                                                    1600(v),1606(v),368(r)
                                                    984(r),360(r),779(r),331(r)
                                                    492(r),362(r),363(r),987(r)
                                                    173(r),1192(r),493(r),986(r)
                                                    1194(r),781(r),777(r),365(r)
                                                    366(r),330(r),361(r),776(r)
                                                    364(r),778(r),1729(r),490(r)
  1478. RY*(   1) O  51                  0.00110     0.86653   
  1479. RY*(   2) O  51                  0.00074     0.73096   
  1480. RY*(   3) O  51                  0.00017     1.39203   
  1481. RY*(   4) O  51                  0.00011     0.70863   
  1482. RY*(   5) O  51                  0.00002     2.33938   
  1483. RY*(   6) O  51                  0.00001     2.21389   
  1484. RY*(   7) O  51                  0.00001     2.95427   
  1485. RY*(   8) O  51                  0.00001     5.56990   
  1486. RY*(   9) O  51                  0.00001     3.25698   
  1487. RY*(  10) O  51                  0.00001     2.22253   
  1488. RY*(  11) O  51                  0.00000     6.35501   
  1489. RY*(  12) O  51                  0.00000     2.94647   
  1490. RY*(  13) O  51                  0.00000     6.43471   
  1491. RY*(  14) O  51                  0.00000    41.72076   
  1492. RY*(  15) O  51                  0.00000     6.42962   
  1493. RY*(  16) O  51                  0.00001     1.88374   
  1494. RY*(  17) O  51                  0.00000     6.19469   
  1495. RY*(  18) O  51                  0.00001     2.70016   
  1496. RY*(  19) O  51                  0.00000     6.57038   
  1497. RY*(  20) O  51                  0.00000     5.53886   
  1498. RY*(  21) O  51                  0.00000     5.36915   
  1499. RY*(  22) O  51                  0.00000     5.45745   
  1500. RY*(  23) O  51                  0.00000     5.14141   
  1501. RY*(  24) O  51                  0.00000     5.42440   
  1502. RY*(  25) O  51                  0.00000     5.22432   
  1503. RY*(  26) O  51                  0.00000     5.35519   
  1599. RY*(   1) H  71                  0.00047     1.75842   
  1600. RY*(   2) H  71                  0.00038     1.82112   
  1601. RY*(   3) H  71                  0.00020     2.10406   
  1602. RY*(   4) H  71                  0.00011     1.15677   
  1603. RY*(   5) H  71                  0.00000     2.82912   
  1604. RY*(   1) H  72                  0.00101     1.75440   
  1605. RY*(   2) H  72                  0.00057     1.64974   
  1606. RY*(   3) H  72                  0.00038     2.30448   
  1607. RY*(   4) H  72                  0.00009     1.99115   
  1608. RY*(   5) H  72                  0.00004     2.80033   
  1803. BD*(   1) O  51 - H  71          0.00179     0.35844   
  1804. BD*(   1) O  51 - H  72          0.00850     0.34649   
       -------------------------------
              Total Lewis    4.90683  ( 99.6805%)
        Valence non-Lewis    0.01028  (  0.2089%)
        Rydberg non-Lewis    0.00544  (  0.1106%)
       -------------------------------
            Total unit  4    4.92256  (100.0000%)
           Charge unit  4    0.07744
 1\1\GINC-NODE363\SP\UPBE1PBE\def2TZVP\C38H40Fe1N6O5(1+,2)\ZHARTOVSKA\0
 6-Sep-2022\0\\# PBE1PBE/def2TZVP empiricaldispersion=GD3BJ scf=maxcycl
 e=999 geom=check pop=nbo\\1cck_III_D\\1,2\C,0,-8.983,54.799,107.567001
 \C,0,-8.54,55.606998,108.792\N,0,-9.235,56.48,109.509003\C,0,-7.314,55
 .534,109.401001\C,0,-8.503,56.910999,110.500999\N,0,-7.319,56.334999,1
 10.436996\H,0,-10.068,56.903999,109.240997\Fe,0,-5.819,56.952,111.6610
 03\C,0,-5.402,53.929001,112.991997\C,0,-7.54,57.979,114.383003\C,0,-5.
 948,60.127998,110.458\C,0,-3.64,56.141998,109.214996\N,0,-6.453,56.078
 999,113.372002\C,0,-6.162,54.831001,113.746002\C,0,-6.72,54.561001,114
 .978996\C,0,-7.402,55.723999,115.358002\C,0,-7.134,56.641998,114.375\C
 ,0,-8.3,55.936001,116.572998\C,0,-6.63,53.219002,115.699997\C,0,-5.402
 ,53.037998,116.555\C,0,-5.327,51.671001,117.238998\O,0,-6.233,51.285,1
 17.983002\O,0,-4.34,50.955002,117.054001\N,0,-6.811,58.708,112.205002\
 C,0,-7.412,58.931999,113.367996\C,0,-7.948,60.220001,113.431\C,0,-7.51
 6,60.838001,112.250999\C,0,-6.724,59.891998,111.598\C,0,-8.881,60.6839
 98,114.561996\C,0,-7.822,62.084999,111.697998\C,0,-8.33176962,62.92626
 41,112.69616128\N,0,-4.944,57.963001,110.096001\C,0,-5.105,59.257,109.
 750999\C,0,-4.341,59.617001,108.634003\C,0,-3.612,58.455002,108.348\C,
 0,-4.065,57.478001,109.233002\C,0,-4.249,61.014999,107.987\C,0,-2.607,
 58.181999,107.403\C,0,-2.176,58.978001,106.297997\N,0,-4.692,55.285,11
 1.160004\C,0,-3.961,55.115002,110.064003\C,0,-3.616,53.791,109.886002\
 C,0,-4.152,53.131001,110.990997\C,0,-4.763,54.104,111.761002\C,0,-2.94
 1,53.191002,108.672997\C,0,-4.125,51.634998,111.255997\C,0,-2.886,51.2
 03999,112.029999\C,0,-2.951,49.791,112.564003\O,0,-2.38,49.560001,113.
 612\O,0,-3.559,48.915001,111.950996\O,0,-4.281,57.657001,113.107002\H,
 0,-6.02075276,50.85383657,118.81405507\H,0,-4.53580591,53.15947432,115
 .93867922\H,0,-5.39545363,53.79770233,117.30846299\H,0,-7.49290101,53.
 11366467,116.32386068\H,0,-6.64652785,52.44080115,114.96581019\H,0,-7.
 80365999,56.57085129,117.27692392\H,0,-9.21621309,56.39406599,116.2637
 5693\H,0,-8.50993654,54.99177269,117.03044696\H,0,-8.00987808,58.31744
 685,115.28276314\H,0,-8.40289455,61.45945002,115.12323511\H,0,-9.79188
 291,61.05708943,114.14247829\H,0,-9.09738873,59.8582961,115.20720317\H
 ,0,-8.55324801,61.96324539,110.92640717\H,0,-9.39447857,62.99771319,11
 2.59396186\H,0,-8.092229,62.52398892,113.65829171\H,0,-6.00605471,61.1
 2206124,110.06637782\H,0,-3.35563943,61.07898593,107.40158343\H,0,-5.0
 998343,61.17352026,107.3578323\H,0,-4.22773686,61.76181106,108.7529762
 5\H,0,-3.42966867,58.10066188,113.107002\H,0,-4.98306459,58.31175691,1
 13.107002\H,0,-3.0223172,59.2488198,105.70192286\H,0,-1.69764829,59.86
 346229,106.66136726\H,0,-2.88765363,57.24455215,106.97018717\H,0,-2.96
 705916,55.88704928,108.42312999\H,0,-2.00000711,52.77026722,108.960076
 47\H,0,-3.56360037,52.42448775,108.26102044\H,0,-2.78180374,53.9537290
 8,107.93964582\H,0,-5.29353662,52.95623425,113.4242707\H,0,-4.14547357
 ,51.11738831,110.31974861\H,0,-4.99487428,51.36759288,111.81876981\H,0
 ,-2.03699757,51.28402804,111.38370942\H,0,-2.75094383,51.87265857,112.
 85434978\H,0,-3.07357034,48.23642198,111.47613965\H,0,-8.81336631,57.6
 1591516,111.24374119\H,0,-6.49267758,54.92595861,109.08380208\H,0,-8.2
 4970345,54.05092057,107.34893372\H,0,-9.92244831,54.32895732,107.77046
 291\H,0,-9.08607588,55.45311462,106.72651934\\Version=ES64L-G16RevA.03
 \State=2-A\HF=-3438.2602284\S2=1.219152\S2-1=0.\S2A=0.854441\RMSD=2.94
 4e-09\Dipole=-2.0843669,2.732293,-3.6221819\Quadrupole=-12.1385556,-9.
 7656891,21.9042447,1.7823554,-24.2139903,2.826807\PG=C01 [X(C38H40Fe1N
 6O5)]\\@


 ACTORS ARE SO FORTUNATE.  THEY CAN CHOOSE WHETHER
 THEY WILL APPEAR IN A TRAGEDY OR IN COMEDY,
 WHETHER THEY WILL SUFFER OF MAKE MERRY,
 LAUGH OR SHED TEARS.  BUT IN REAL LIFE IT IS DIFFERENT.
 MOST MEN AND WOMEN ARE FORCED TO PERFORM
 PARTS FOR WHICH THEY HAVE NO QUALIFICATIONS.
 THE WORLD IS A STAGE, BUT THE PLAY IS BADLY CAST.

                                   -- OSCAR WILDE
 Job cpu time:      25 days  0 hours 58 minutes  7.5 seconds.
 Elapsed time:       6 days  7 hours  2 minutes 47.7 seconds.
 File lengths (MBytes):  RWF=   2989 Int=      0 D2E=      0 Chk=    262 Scr=      1
 Normal termination of Gaussian 16 at Tue Sep  6 20:16:53 2022.
