 Initial command:
 /afs/math/software/gaussian/g16.A03/g16/l1.exe "/scratch/zhartovska_gaussian.Qzgou0x/Gau-4589.inp" -scrdir="/scratch/zhartovska_gaussian.Qzgou0x/"
 Entering Link 1 = /afs/math/software/gaussian/g16.A03/g16/l1.exe PID=      2384.
  
 Copyright (c) 1988,1990,1992,1993,1995,1998,2003,2009,2016,
            Gaussian, Inc.  All Rights Reserved.
  
 This is part of the Gaussian(R) 16 program.  It is based on
 the Gaussian(R) 09 system (copyright 2009, Gaussian, Inc.),
 the Gaussian(R) 03 system (copyright 2003, Gaussian, Inc.),
 the Gaussian(R) 98 system (copyright 1998, Gaussian, Inc.),
 the Gaussian(R) 94 system (copyright 1995, Gaussian, Inc.),
 the Gaussian 92(TM) system (copyright 1992, Gaussian, Inc.),
 the Gaussian 90(TM) system (copyright 1990, Gaussian, Inc.),
 the Gaussian 88(TM) system (copyright 1988, Gaussian, Inc.),
 the Gaussian 86(TM) system (copyright 1986, Carnegie Mellon
 University), and the Gaussian 82(TM) system (copyright 1983,
 Carnegie Mellon University). Gaussian is a federally registered
 trademark of Gaussian, Inc.
  
 This software contains proprietary and confidential information,
 including trade secrets, belonging to Gaussian, Inc.
  
 This software is provided under written license and may be
 used, copied, transmitted, or stored only in accord with that
 written license.
  
 The following legend is applicable only to US Government
 contracts under FAR:
  
                    RESTRICTED RIGHTS LEGEND
  
 Use, reproduction and disclosure by the US Government is
 subject to restrictions as set forth in subparagraphs (a)
 and (c) of the Commercial Computer Software - Restricted
 Rights clause in FAR 52.227-19.
  
 Gaussian, Inc.
 340 Quinnipiac St., Bldg. 40, Wallingford CT 06492
  
  
 ---------------------------------------------------------------
 Warning -- This program may not be used in any manner that
 competes with the business of Gaussian, Inc. or will provide
 assistance to any competitor of Gaussian, Inc.  The licensee
 of this program is prohibited from giving any competitor of
 Gaussian, Inc. access to this program.  By using this program,
 the user acknowledges that Gaussian, Inc. is engaged in the
 business of creating and licensing software in the field of
 computational chemistry and represents and warrants to the
 licensee that it is not a competitor of Gaussian, Inc. and that
 it will not use this program in any manner prohibited above.
 ---------------------------------------------------------------
  

 Cite this work as:
 Gaussian 16, Revision A.03,
 M. J. Frisch, G. W. Trucks, H. B. Schlegel, G. E. Scuseria, 
 M. A. Robb, J. R. Cheeseman, G. Scalmani, V. Barone, 
 G. A. Petersson, H. Nakatsuji, X. Li, M. Caricato, A. V. Marenich, 
 J. Bloino, B. G. Janesko, R. Gomperts, B. Mennucci, H. P. Hratchian, 
 J. V. Ortiz, A. F. Izmaylov, J. L. Sonnenberg, D. Williams-Young, 
 F. Ding, F. Lipparini, F. Egidi, J. Goings, B. Peng, A. Petrone, 
 T. Henderson, D. Ranasinghe, V. G. Zakrzewski, J. Gao, N. Rega, 
 G. Zheng, W. Liang, M. Hada, M. Ehara, K. Toyota, R. Fukuda, 
 J. Hasegawa, M. Ishida, T. Nakajima, Y. Honda, O. Kitao, H. Nakai, 
 T. Vreven, K. Throssell, J. A. Montgomery, Jr., J. E. Peralta, 
 F. Ogliaro, M. J. Bearpark, J. J. Heyd, E. N. Brothers, K. N. Kudin, 
 V. N. Staroverov, T. A. Keith, R. Kobayashi, J. Normand, 
 K. Raghavachari, A. P. Rendell, J. C. Burant, S. S. Iyengar, 
 J. Tomasi, M. Cossi, J. M. Millam, M. Klene, C. Adamo, R. Cammi, 
 J. W. Ochterski, R. L. Martin, K. Morokuma, O. Farkas, 
 J. B. Foresman, and D. J. Fox, Gaussian, Inc., Wallingford CT, 2016.
 
 ******************************************
 Gaussian 16:  ES64L-G16RevA.03 25-Dec-2016
                 2-Sep-2022 
 ******************************************
 %nprocs=12
 Will use up to   12 processors via shared memory.
 %mem=16GB
 %chk=1cpo_II_S.chk
 ----------------------------------------------------------------------
 # PBE1PBE/def2TZVP empiricaldispersion=GD3BJ int=(grid=ultrafine) geom
 =check guess=read pop=nbo scf=qc
 ----------------------------------------------------------------------
 1/29=2,38=1,172=1/1;
 2/12=2,40=1/2;
 3/5=44,7=101,11=2,14=-4,25=1,30=1,74=-13,75=-5,116=-2,124=41/1,2,3;
 4/5=1/1;
 5/5=2,8=3,38=6/8;
 6/7=2,8=2,9=2,10=2,28=1,40=1/1,7;
 99/5=1,9=1/99;
 -------------
 1cpo_II_S_nbo
 -------------
 Structure from the checkpoint file:  "1cpo_II_S.chk"
 Charge =  0 Multiplicity = 1
 Z-Matrix found in chk file.
 C,0,39.537998,-0.794,5.207
 S,0,38.03392141,-1.11851475,6.10189876
 C,0,38.470001,1.241,1.71
 C,0,38.207001,-3.562,2.326
 C,0,34.162998,-2.989,4.879
 C,0,34.547001,1.849,4.502
 C,0,38.791,-0.121,1.704
 C,0,39.887001,-0.717,0.972
 C,0,39.783001,-2.053,1.11
 C,0,38.667999,-2.302,1.984
 C,0,40.647999,-3.112,0.473
 C,0,40.936001,0.054,0.225
 C,0,40.355,0.615,-1.069
 C,0,41.040001,1.884,-1.489
 O,0,40.57,2.973,-1.091
 O,0,42.042,1.804,-2.234
 C,0,37.137001,-3.843,3.159
 C,0,36.700001,-5.174,3.528
 C,0,35.554001,-5.028,4.232
 C,0,35.285999,-3.592,4.314
 C,0,37.431999,-6.484,3.19
 C,0,34.946999,-6.207,4.676
 C,0,33.895,-6.333,5.558
 C,0,33.944,-1.614,5.037
 C,0,32.749001,-1.037,5.609
 C,0,32.959,0.305,5.696
 C,0,34.155998,0.587,4.944
 C,0,31.51,-1.853,5.944
 C,0,32.256001,1.338,6.324
 C,0,30.90427054,1.16727,6.65202133
 C,0,35.657001,2.127,3.714
 C,0,35.973,3.417,3.133
 C,0,37.07,3.246,2.357
 C,0,37.433998,1.843,2.429
 C,0,35.178001,4.703,3.333
 C,0,37.765999,4.308,1.52
 C,0,39.055,4.903,2.096
 C,0,39.705002,5.928,1.183
 O,0,40.587002,6.668,1.654
 O,0,39.345001,6.,-0.005
 N,0,38.126999,-1.103,2.413
 N,0,36.352001,-2.902,3.784
 N,0,34.805,-0.601,4.662
 N,0,36.566002,1.185,3.28
 Fe,0,36.534,-0.853,3.659
 H,0,40.37185059,-1.16830862,5.76331189
 H,0,39.49800131,-1.27946307,4.25430599
 H,0,39.64827803,0.26084517,5.06543736
 H,0,38.32544857,-1.5539017,7.30254447
 H,0,41.16016414,3.6841629,-0.83108922
 H,0,40.46661003,-0.1134716,-1.84473986
 H,0,39.31343461,0.81336418,-0.92514872
 H,0,41.75480306,-0.59477481,-0.0064183
 H,0,41.28475677,0.86052627,0.83556105
 H,0,40.0018081,6.04235538,-0.70386369
 H,0,38.82812247,5.371808,3.03069014
 H,0,39.75091102,4.1090699,2.27001966
 H,0,37.99815649,3.87772311,0.56823075
 H,0,37.07455227,5.10932296,1.36289196
 H,0,39.07616137,1.88329599,1.10590938
 H,0,41.56826555,-3.1930889,1.01284633
 H,0,40.13677823,-4.05168406,0.49639202
 H,0,40.85252189,-2.84240707,-0.5420813
 H,0,38.72687928,-4.39802645,1.90685044
 H,0,35.73763132,5.53128543,2.95134944
 H,0,34.24651783,4.63125509,2.81137583
 H,0,34.99207458,4.84872996,4.37659673
 H,0,33.93799641,2.67832554,4.79565382
 H,0,31.7261372,-2.51118127,6.75946436
 H,0,30.71275438,-1.19440939,6.21887787
 H,0,31.21944579,-2.42748207,5.08933714
 H,0,33.39031148,-3.64219176,5.22713226
 H,0,38.3701161,-6.51120329,3.703903
 H,0,36.83333509,-7.31632299,3.49616982
 H,0,37.60172559,-6.53571325,2.13481347
 H,0,32.75019209,2.25873467,6.55404961
 H,0,30.61588392,1.01788649,7.67153971
 H,0,30.16058121,1.18629478,5.88295421
 H,0,34.03938488,-6.12075709,6.59675211
 H,0,32.93409926,-6.64304106,5.20381883
 H,0,35.34637092,-7.11935115,4.28482555
 Recover connectivity data from disk.
 Stoichiometry    C35H36FeN4O4S
 Framework group  C1[X(C35H36FeN4O4S)]
 Deg. of freedom   237
 Full point group                 C1      NOp   1
 Largest Abelian subgroup         C1      NOp   1
 Largest concise Abelian subgroup C1      NOp   1
                         Standard orientation:                         
 ---------------------------------------------------------------------
 Center     Atomic      Atomic             Coordinates (Angstroms)
 Number     Number       Type             X           Y           Z
 ---------------------------------------------------------------------
      1          6           0       -0.115849   -1.148897    3.136053
      2         16           0       -1.612746   -0.207226    2.933680
      3          6           0        2.342646   -0.261906   -0.131958
      4          6           0       -1.321712   -3.437900   -0.186582
      5          6           0       -4.449186    0.212277   -0.495150
      6          6           0       -0.809233    3.428447   -0.174485
      7          6           0        1.613531   -1.453944   -0.057399
      8          6           0        2.185316   -2.782506   -0.041826
      9          6           0        1.164868   -3.659898   -0.102025
     10          6           0       -0.052567   -2.893977   -0.084100
     11          6           0        1.250531   -5.163631   -0.185227
     12          6           0        3.653789   -3.080560    0.045366
     13          6           0        4.330407   -2.787000   -1.289823
     14          6           0        5.769333   -2.392901   -1.116145
     15          8           0        6.041716   -1.178619   -0.987492
     16          8           0        6.640275   -3.291130   -1.124667
     17          6           0       -2.515407   -2.735933   -0.177394
     18          6           0       -3.831718   -3.336575   -0.249807
     19          6           0       -4.719520   -2.321114   -0.354182
     20          6           0       -3.947882   -1.078272   -0.330398
     21          6           0       -4.133960   -4.843753   -0.192977
     22          6           0       -6.065936   -2.685291   -0.455015
     23          6           0       -7.169424   -1.862086   -0.383263
     24          6           0       -3.727715    1.408606   -0.386405
     25          6           0       -4.290309    2.723905   -0.590396
     26          6           0       -3.315342    3.623795   -0.286635
     27          6           0       -2.088852    2.877896   -0.155519
     28          6           0       -5.695986    2.953308   -1.123921
     29          6           0       -3.322984    5.011859   -0.116632
     30          6           0       -4.356348    5.779888   -0.669997
     31          6           0        0.383121    2.717050   -0.124147
     32          6           0        1.706728    3.282583   -0.296643
     33          6           0        2.585143    2.251579   -0.281039
     34          6           0        1.814914    1.031950   -0.121849
     35          6           0        2.024383    4.759810   -0.503321
     36          6           0        4.093756    2.339944   -0.451643
     37          6           0        4.937776    2.239048    0.823023
     38          6           0        6.432591    2.299879    0.561247
     39          8           0        7.195852    2.503501    1.522151
     40          8           0        6.854447    2.142581   -0.597814
     41          7           0        0.238566   -1.546725    0.036221
     42          7           0       -2.629332   -1.369575   -0.065958
     43          7           0       -2.383171    1.528245   -0.093142
     44          7           0        0.473482    1.345697   -0.009137
     45         26           0       -1.093653   -0.006419    0.109102
     46          1           0       -0.167565   -1.709785    4.045795
     47          1           0       -0.001656   -1.819129    2.309827
     48          1           0        0.721494   -0.483839    3.174189
     49          1           0       -2.322685   -0.274179    4.032590
     50          1           0        6.723937   -0.902404   -0.371147
     51          1           0        4.281228   -3.661646   -1.904212
     52          1           0        3.807992   -1.990053   -1.776504
     53          1           0        3.791667   -4.112340    0.292996
     54          1           0        4.094165   -2.471597    0.807031
     55          1           0        7.590927    1.549708   -0.764243
     56          1           0        4.671119    3.044388    1.475112
     57          1           0        4.712737    1.313535    1.310550
     58          1           0        4.397477    1.553988   -1.111133
     59          1           0        4.318058    3.274288   -0.922376
     60          1           0        3.406639   -0.349579   -0.203606
     61          1           0        1.451826   -5.563721    0.786528
     62          1           0        0.322230   -5.554313   -0.546510
     63          1           0        2.038299   -5.439501   -0.854717
     64          1           0       -1.386316   -4.501683   -0.281936
     65          1           0        3.078970    4.914411   -0.409282
     66          1           0        1.705553    5.059994   -1.479609
     67          1           0        1.511494    5.341462    0.233921
     68          1           0       -0.738376    4.494490   -0.233057
     69          1           0       -6.410815    2.629920   -0.396364
     70          1           0       -5.836240    3.995198   -1.323157
     71          1           0       -5.829826    2.396197   -2.027588
     72          1           0       -5.489995    0.297818   -0.728170
     73          1           0       -3.873950   -5.223488    0.772992
     74          1           0       -5.176600   -5.005394   -0.370950
     75          1           0       -3.561572   -5.350775   -0.941443
     76          1           0       -2.539836    5.487499    0.435948
     77          1           0       -5.112880    6.194330   -0.036911
     78          1           0       -4.388813    5.951852   -1.725589
     79          1           0       -7.449704   -1.423330    0.551529
     80          1           0       -7.745627   -1.661908   -1.262364
     81          1           0       -6.262987   -3.726139   -0.605702
 ---------------------------------------------------------------------
 Rotational constants (GHZ):           0.0906511           0.0492011           0.0347377
 Standard basis: def2TZVP (5D, 7F)
 There are  1858 symmetry adapted cartesian basis functions of A   symmetry.
 There are  1631 symmetry adapted basis functions of A   symmetry.
  1631 basis functions,  2652 primitive gaussians,  1858 cartesian basis functions
   174 alpha electrons      174 beta electrons
       nuclear repulsion energy      6503.9273010918 Hartrees.
 NAtoms=   81 NActive=   81 NUniq=   81 SFac= 1.00D+00 NAtFMM=   60 NAOKFM=T Big=T
 Integral buffers will be    131072 words long.
 Raffenetti 2 integral format.
 Two-electron integral symmetry is turned on.
 Nuclear repulsion after empirical dispersion term =     6503.8116124394 Hartrees.
 One-electron integrals computed using PRISM.
   1 Symmetry operations used in ECPInt.
 ECPInt:  NShTT=  208335 NPrTT=  650379 LenC2=  150697 LenP2D=  306195.
 LDataN:  DoStor=T MaxTD1= 6 Len=  172
 NBasis=  1631 RedAO= T EigKep=  3.33D-06  NBF=  1631
 NBsUse=  1631 1.00D-06 EigRej= -1.00D+00 NBFU=  1631
 Initial guess from the checkpoint file:  "1cpo_II_S.chk"
 B after Tr=     0.000000    0.000000   -0.000000
         Rot=    1.000000    0.000000    0.000000    0.000000 Ang=   0.00 deg.
 SCF Done:  E(RPBE1PBE) =  -3535.31017041     a.u. after    1 cycles
            Convg  =    0.2101D-06                     1 Fock formations.
              S**2 =  0.0000                  -V/T =  2.0030

 **********************************************************************

            Population analysis using the SCF density.

 **********************************************************************

 Orbital symmetries:
       Occupied  (A) (A) (A) (A) (A) (A) (A) (A) (A) (A) (A) (A)
                 (A) (A) (A) (A) (A) (A) (A) (A) (A) (A) (A) (A)
                 (A) (A) (A) (A) (A) (A) (A) (A) (A) (A) (A) (A)
                 (A) (A) (A) (A) (A) (A) (A) (A) (A) (A) (A) (A)
                 (A) (A) (A) (A) (A) (A) (A) (A) (A) (A) (A) (A)
                 (A) (A) (A) (A) (A) (A) (A) (A) (A) (A) (A) (A)
                 (A) (A) (A) (A) (A) (A) (A) (A) (A) (A) (A) (A)
                 (A) (A) (A) (A) (A) (A) (A) (A) (A) (A) (A) (A)
                 (A) (A) (A) (A) (A) (A) (A) (A) (A) (A) (A) (A)
                 (A) (A) (A) (A) (A) (A) (A) (A) (A) (A) (A) (A)
                 (A) (A) (A) (A) (A) (A) (A) (A) (A) (A) (A) (A)
                 (A) (A) (A) (A) (A) (A) (A) (A) (A) (A) (A) (A)
                 (A) (A) (A) (A) (A) (A) (A) (A) (A) (A) (A) (A)
                 (A) (A) (A) (A) (A) (A) (A) (A) (A) (A) (A) (A)
                 (A) (A) (A) (A) (A) (A)
       Virtual   (A) (A) (A) (A) (A) (A) (A) (A) (A) (A) (A) (A)
                 (A) (A) (A) (A) (A) (A) (A) (A) (A) (A) (A) (A)
                 (A) (A) (A) (A) (A) (A) (A) (A) (A) (A) (A) (A)
                 (A) (A) (A) (A) (A) (A) (A) (A) (A) (A) (A) (A)
                 (A) (A) (A) (A) (A) (A) (A) (A) (A) (A) (A) (A)
                 (A) (A) (A) (A) (A) (A) (A) (A) (A) (A) (A) (A)
                 (A) (A) (A) (A) (A) (A) (A) (A) (A) (A) (A) (A)
                 (A) (A) (A) (A) (A) (A) (A) (A) (A) (A) (A) (A)
                 (A) (A) (A) (A) (A) (A) (A) (A) (A) (A) (A) (A)
                 (A) (A) (A) (A) (A) (A) (A) (A) (A) (A) (A) (A)
                 (A) (A) (A) (A) (A) (A) (A) (A) (A) (A) (A) (A)
                 (A) (A) (A) (A) (A) (A) (A) (A) (A) (A) (A) (A)
                 (A) (A) (A) (A) (A) (A) (A) (A) (A) (A) (A) (A)
                 (A) (A) (A) (A) (A) (A) (A) (A) (A) (A) (A) (A)
                 (A) (A) (A) (A) (A) (A) (A) (A) (A) (A) (A) (A)
                 (A) (A) (A) (A) (A) (A) (A) (A) (A) (A) (A) (A)
                 (A) (A) (A) (A) (A) (A) (A) (A) (A) (A) (A) (A)
                 (A) (A) (A) (A) (A) (A) (A) (A) (A) (A) (A) (A)
                 (A) (A) (A) (A) (A) (A) (A) (A) (A) (A) (A) (A)
                 (A) (A) (A) (A) (A) (A) (A) (A) (A) (A) (A) (A)
                 (A) (A) (A) (A) (A) (A) (A) (A) (A) (A) (A) (A)
                 (A) (A) (A) (A) (A) (A) (A) (A) (A) (A) (A) (A)
                 (A) (A) (A) (A) (A) (A) (A) (A) (A) (A) (A) (A)
                 (A) (A) (A) (A) (A) (A) (A) (A) (A) (A) (A) (A)
                 (A) (A) (A) (A) (A) (A) (A) (A) (A) (A) (A) (A)
                 (A) (A) (A) (A) (A) (A) (A) (A) (A) (A) (A) (A)
                 (A) (A) (A) (A) (A) (A) (A) (A) (A) (A) (A) (A)
                 (A) (A) (A) (A) (A) (A) (A) (A) (A) (A) (A) (A)
                 (A) (A) (A) (A) (A) (A) (A) (A) (A) (A) (A) (A)
                 (A) (A) (A) (A) (A) (A) (A) (A) (A) (A) (A) (A)
                 (A) (A) (A) (A) (A) (A) (A) (A) (A) (A) (A) (A)
                 (A) (A) (A) (A) (A) (A) (A) (A) (A) (A) (A) (A)
                 (A) (A) (A) (A) (A) (A) (A) (A) (A) (A) (A) (A)
                 (A) (A) (A) (A) (A) (A) (A) (A) (A) (A) (A) (A)
                 (A) (A) (A) (A) (A) (A) (A) (A) (A) (A) (A) (A)
                 (A) (A) (A) (A) (A) (A) (A) (A) (A) (A) (A) (A)
                 (A) (A) (A) (A) (A) (A) (A) (A) (A) (A) (A) (A)
                 (A) (A) (A) (A) (A) (A) (A) (A) (A) (A) (A) (A)
                 (A) (A) (A) (A) (A) (A) (A) (A) (A) (A) (A) (A)
                 (A) (A) (A) (A) (A) (A) (A) (A) (A) (A) (A) (A)
                 (A) (A) (A) (A) (A) (A) (A) (A) (A) (A) (A) (A)
                 (A) (A) (A) (A) (A) (A) (A) (A) (A) (A) (A) (A)
                 (A) (A) (A) (A) (A) (A) (A) (A) (A) (A) (A) (A)
                 (A) (A) (A) (A) (A) (A) (A) (A) (A) (A) (A) (A)
                 (A) (A) (A) (A) (A) (A) (A) (A) (A) (A) (A) (A)
                 (A) (A) (A) (A) (A) (A) (A) (A) (A) (A) (A) (A)
                 (A) (A) (A) (A) (A) (A) (A) (A) (A) (A) (A) (A)
                 (A) (A) (A) (A) (A) (A) (A) (A) (A) (A) (A) (A)
                 (A) (A) (A) (A) (A) (A) (A) (A) (A) (A) (A) (A)
                 (A) (A) (A) (A) (A) (A) (A) (A) (A) (A) (A) (A)
                 (A) (A) (A) (A) (A) (A) (A) (A) (A) (A) (A) (A)
                 (A) (A) (A) (A) (A) (A) (A) (A) (A) (A) (A) (A)
                 (A) (A) (A) (A) (A) (A) (A) (A) (A) (A) (A) (A)
                 (A) (A) (A) (A) (A) (A) (A) (A) (A) (A) (A) (A)
                 (A) (A) (A) (A) (A) (A) (A) (A) (A) (A) (A) (A)
                 (A) (A) (A) (A) (A) (A) (A) (A) (A) (A) (A) (A)
                 (A) (A) (A) (A) (A) (A) (A) (A) (A) (A) (A) (A)
                 (A) (A) (A) (A) (A) (A) (A) (A) (A) (A) (A) (A)
                 (A) (A) (A) (A) (A) (A) (A) (A) (A) (A) (A) (A)
                 (A) (A) (A) (A) (A) (A) (A) (A) (A) (A) (A) (A)
                 (A) (A) (A) (A) (A) (A) (A) (A) (A) (A) (A) (A)
                 (A) (A) (A) (A) (A) (A) (A) (A) (A) (A) (A) (A)
                 (A) (A) (A) (A) (A) (A) (A) (A) (A) (A) (A) (A)
                 (A) (A) (A) (A) (A) (A) (A) (A) (A) (A) (A) (A)
                 (A) (A) (A) (A) (A) (A) (A) (A) (A) (A) (A) (A)
                 (A) (A) (A) (A) (A) (A) (A) (A) (A) (A) (A) (A)
                 (A) (A) (A) (A) (A) (A) (A) (A) (A) (A) (A) (A)
                 (A) (A) (A) (A) (A) (A) (A) (A) (A) (A) (A) (A)
                 (A) (A) (A) (A) (A) (A) (A) (A) (A) (A) (A) (A)
                 (A) (A) (A) (A) (A) (A) (A) (A) (A) (A) (A) (A)
                 (A) (A) (A) (A) (A) (A) (A) (A) (A) (A) (A) (A)
                 (A) (A) (A) (A) (A) (A) (A) (A) (A) (A) (A) (A)
                 (A) (A) (A) (A) (A) (A) (A) (A) (A) (A) (A) (A)
                 (A) (A) (A) (A) (A) (A) (A) (A) (A) (A) (A) (A)
                 (A) (A) (A) (A) (A) (A) (A) (A) (A) (A) (A) (A)
                 (A) (A) (A) (A) (A) (A) (A) (A) (A) (A) (A) (A)
                 (A) (A) (A) (A) (A) (A) (A) (A) (A) (A) (A) (A)
                 (A) (A) (A) (A) (A) (A) (A) (A) (A) (A) (A) (A)
                 (A) (A) (A) (A) (A) (A) (A) (A) (A) (A) (A) (A)
                 (A) (A) (A) (A) (A) (A) (A) (A) (A) (A) (A) (A)
                 (A) (A) (A) (A) (A) (A) (A) (A) (A) (A) (A) (A)
                 (A) (A) (A) (A) (A) (A) (A) (A) (A) (A) (A) (A)
                 (A) (A) (A) (A) (A) (A) (A) (A) (A) (A) (A) (A)
                 (A) (A) (A) (A) (A) (A) (A) (A) (A) (A) (A) (A)
                 (A) (A) (A) (A) (A) (A) (A) (A) (A) (A) (A) (A)
                 (A) (A) (A) (A) (A) (A) (A) (A) (A) (A) (A) (A)
                 (A) (A) (A) (A) (A) (A) (A) (A) (A) (A) (A) (A)
                 (A) (A) (A) (A) (A) (A) (A) (A) (A) (A) (A) (A)
                 (A) (A) (A) (A) (A) (A) (A) (A) (A) (A) (A) (A)
                 (A) (A) (A) (A) (A) (A) (A) (A) (A) (A) (A) (A)
                 (A) (A) (A) (A) (A) (A) (A) (A) (A) (A) (A) (A)
                 (A) (A) (A) (A) (A) (A) (A) (A) (A) (A) (A) (A)
                 (A) (A) (A) (A) (A) (A) (A) (A) (A) (A) (A) (A)
                 (A) (A) (A) (A) (A) (A) (A) (A) (A) (A) (A) (A)
                 (A) (A) (A) (A) (A) (A) (A) (A) (A) (A) (A) (A)
                 (A) (A) (A) (A) (A) (A) (A) (A) (A) (A) (A) (A)
                 (A) (A) (A) (A) (A) (A) (A) (A) (A) (A) (A) (A)
                 (A) (A) (A) (A) (A) (A) (A) (A) (A) (A) (A) (A)
                 (A) (A) (A) (A) (A) (A) (A) (A) (A) (A) (A) (A)
                 (A) (A) (A) (A) (A) (A) (A) (A) (A) (A) (A) (A)
                 (A) (A) (A) (A) (A) (A) (A) (A) (A) (A) (A) (A)
                 (A) (A) (A) (A) (A) (A) (A) (A) (A) (A) (A) (A)
                 (A) (A) (A) (A) (A) (A) (A) (A) (A) (A) (A) (A)
                 (A) (A) (A) (A) (A) (A) (A) (A) (A) (A) (A) (A)
                 (A) (A) (A) (A) (A) (A) (A) (A) (A) (A) (A) (A)
                 (A) (A) (A) (A) (A) (A) (A) (A) (A) (A) (A) (A)
                 (A) (A) (A) (A) (A) (A) (A) (A) (A) (A) (A) (A)
                 (A) (A) (A) (A) (A) (A) (A) (A) (A) (A) (A) (A)
                 (A) (A) (A) (A) (A) (A) (A) (A) (A) (A) (A) (A)
                 (A) (A) (A) (A) (A) (A) (A) (A) (A) (A) (A) (A)
                 (A) (A) (A) (A) (A) (A) (A) (A) (A) (A) (A) (A)
                 (A) (A) (A) (A) (A) (A) (A) (A) (A) (A) (A) (A)
                 (A) (A) (A) (A) (A) (A) (A) (A) (A) (A) (A) (A)
                 (A) (A) (A) (A) (A) (A) (A) (A) (A) (A) (A) (A)
                 (A) (A) (A) (A) (A) (A) (A) (A) (A) (A) (A) (A)
                 (A) (A) (A) (A) (A) (A) (A) (A) (A) (A) (A) (A)
                 (A) (A) (A) (A) (A) (A) (A) (A) (A) (A) (A) (A)
                 (A) (A) (A) (A) (A) (A) (A) (A) (A) (A) (A) (A)
                 (A) (A) (A) (A) (A) (A) (A) (A) (A) (A) (A) (A)
                 (A) (A) (A) (A) (A) (A) (A) (A) (A) (A) (A) (A)
                 (A) (A) (A) (A) (A) (A) (A) (A) (A) (A) (A) (A)
                 (A) (A) (A) (A) (A)
 The electronic state is 1-A.
 Alpha  occ. eigenvalues -- -256.35796 -89.02396 -30.12188 -25.95256 -25.94585
 Alpha  occ. eigenvalues --  -25.94540 -19.28338 -19.27708 -19.18727 -19.18712
 Alpha  occ. eigenvalues --  -14.39489 -14.39295 -14.39230 -14.39001 -10.36319
 Alpha  occ. eigenvalues --  -10.36240 -10.26840 -10.26331 -10.26264 -10.26014
 Alpha  occ. eigenvalues --  -10.26004 -10.25969 -10.25954 -10.25855 -10.24205
 Alpha  occ. eigenvalues --  -10.24191 -10.24157 -10.23766 -10.23751 -10.23626
 Alpha  occ. eigenvalues --  -10.23505 -10.23497 -10.23422 -10.23402 -10.23358
 Alpha  occ. eigenvalues --  -10.23198 -10.23191 -10.23167 -10.23156 -10.23102
 Alpha  occ. eigenvalues --  -10.23097 -10.23033 -10.22611 -10.22559 -10.22413
 Alpha  occ. eigenvalues --  -10.22166 -10.21629 -10.21390 -10.21289  -8.00518
 Alpha  occ. eigenvalues --   -5.94203  -5.93852  -5.93305  -3.47403  -2.24074
 Alpha  occ. eigenvalues --   -2.22361  -2.22314  -1.18879  -1.18760  -1.03742
 Alpha  occ. eigenvalues --   -1.03510  -0.99261  -0.98335  -0.98277  -0.97321
 Alpha  occ. eigenvalues --   -0.85741  -0.84851  -0.84810  -0.84445  -0.83766
 Alpha  occ. eigenvalues --   -0.82244  -0.81936  -0.81707  -0.80725  -0.80055
 Alpha  occ. eigenvalues --   -0.78108  -0.77017  -0.76518  -0.75238  -0.74216
 Alpha  occ. eigenvalues --   -0.72968  -0.72342  -0.71752  -0.70913  -0.70537
 Alpha  occ. eigenvalues --   -0.67935  -0.67523  -0.67091  -0.66383  -0.66354
 Alpha  occ. eigenvalues --   -0.63468  -0.62354  -0.60076  -0.59102  -0.57122
 Alpha  occ. eigenvalues --   -0.56245  -0.55595  -0.54891  -0.53935  -0.53356
 Alpha  occ. eigenvalues --   -0.53109  -0.52957  -0.52395  -0.52354  -0.52050
 Alpha  occ. eigenvalues --   -0.50506  -0.50417  -0.49978  -0.49798  -0.49128
 Alpha  occ. eigenvalues --   -0.48610  -0.47857  -0.47479  -0.47229  -0.46499
 Alpha  occ. eigenvalues --   -0.46320  -0.46017  -0.45667  -0.45339  -0.45052
 Alpha  occ. eigenvalues --   -0.44884  -0.44491  -0.44238  -0.44105  -0.43781
 Alpha  occ. eigenvalues --   -0.43543  -0.43517  -0.43070  -0.42315  -0.42129
 Alpha  occ. eigenvalues --   -0.41961  -0.41661  -0.41228  -0.41169  -0.41041
 Alpha  occ. eigenvalues --   -0.40888  -0.40569  -0.40456  -0.40080  -0.39781
 Alpha  occ. eigenvalues --   -0.39478  -0.39310  -0.38787  -0.38560  -0.38312
 Alpha  occ. eigenvalues --   -0.37863  -0.37603  -0.37363  -0.37062  -0.36696
 Alpha  occ. eigenvalues --   -0.36338  -0.34392  -0.33977  -0.33855  -0.33645
 Alpha  occ. eigenvalues --   -0.33482  -0.32522  -0.32203  -0.30567  -0.29754
 Alpha  occ. eigenvalues --   -0.29175  -0.28949  -0.28902  -0.28323  -0.27013
 Alpha  occ. eigenvalues --   -0.26308  -0.25423  -0.24684  -0.23512  -0.23238
 Alpha  occ. eigenvalues --   -0.21164  -0.20676  -0.18772  -0.17842
 Alpha virt. eigenvalues --   -0.09936  -0.09462  -0.08233  -0.06758  -0.05783
 Alpha virt. eigenvalues --   -0.02756  -0.01468  -0.00570   0.00126   0.00732
 Alpha virt. eigenvalues --    0.01955   0.02674   0.03575   0.03719   0.03921
 Alpha virt. eigenvalues --    0.04446   0.04819   0.05626   0.05862   0.05944
 Alpha virt. eigenvalues --    0.06741   0.07051   0.07175   0.07741   0.08450
 Alpha virt. eigenvalues --    0.08732   0.08953   0.09273   0.09385   0.09578
 Alpha virt. eigenvalues --    0.10043   0.10183   0.10532   0.10822   0.10954
 Alpha virt. eigenvalues --    0.11224   0.11377   0.11635   0.11954   0.12000
 Alpha virt. eigenvalues --    0.12354   0.12748   0.12822   0.13014   0.13264
 Alpha virt. eigenvalues --    0.13619   0.13872   0.13912   0.14066   0.14241
 Alpha virt. eigenvalues --    0.14445   0.14631   0.14825   0.14988   0.15181
 Alpha virt. eigenvalues --    0.15797   0.16021   0.16153   0.16294   0.16624
 Alpha virt. eigenvalues --    0.16935   0.17220   0.17442   0.17568   0.17817
 Alpha virt. eigenvalues --    0.18040   0.18117   0.18847   0.19000   0.19231
 Alpha virt. eigenvalues --    0.19490   0.19620   0.19854   0.20363   0.20506
 Alpha virt. eigenvalues --    0.20693   0.20903   0.20992   0.21110   0.21503
 Alpha virt. eigenvalues --    0.21676   0.22074   0.22244   0.22486   0.22713
 Alpha virt. eigenvalues --    0.22728   0.23200   0.23499   0.23845   0.23967
 Alpha virt. eigenvalues --    0.24059   0.24582   0.24617   0.24851   0.25150
 Alpha virt. eigenvalues --    0.25516   0.26037   0.26204   0.26345   0.26608
 Alpha virt. eigenvalues --    0.26679   0.26873   0.27241   0.27366   0.27798
 Alpha virt. eigenvalues --    0.27964   0.28111   0.28396   0.28693   0.28916
 Alpha virt. eigenvalues --    0.29370   0.29686   0.29804   0.29943   0.30218
 Alpha virt. eigenvalues --    0.30464   0.30549   0.31021   0.31035   0.31445
 Alpha virt. eigenvalues --    0.31738   0.31944   0.32311   0.32443   0.33001
 Alpha virt. eigenvalues --    0.33145   0.33267   0.33607   0.33942   0.34498
 Alpha virt. eigenvalues --    0.34875   0.35016   0.35049   0.35212   0.35531
 Alpha virt. eigenvalues --    0.35679   0.36003   0.36546   0.36649   0.36825
 Alpha virt. eigenvalues --    0.36975   0.37356   0.37555   0.37683   0.37963
 Alpha virt. eigenvalues --    0.38209   0.38325   0.38560   0.39105   0.39210
 Alpha virt. eigenvalues --    0.39348   0.39505   0.39715   0.39788   0.40174
 Alpha virt. eigenvalues --    0.40263   0.40800   0.40898   0.41233   0.41496
 Alpha virt. eigenvalues --    0.41671   0.41980   0.42247   0.42386   0.42607
 Alpha virt. eigenvalues --    0.42814   0.43013   0.43194   0.43443   0.43552
 Alpha virt. eigenvalues --    0.43799   0.44002   0.44458   0.44693   0.44793
 Alpha virt. eigenvalues --    0.45059   0.45164   0.45269   0.45620   0.45639
 Alpha virt. eigenvalues --    0.46048   0.46174   0.46359   0.46442   0.46552
 Alpha virt. eigenvalues --    0.46895   0.47119   0.47198   0.47563   0.47602
 Alpha virt. eigenvalues --    0.47781   0.48128   0.48218   0.48335   0.48465
 Alpha virt. eigenvalues --    0.48784   0.48894   0.49050   0.49167   0.49422
 Alpha virt. eigenvalues --    0.49783   0.50177   0.50201   0.50490   0.50694
 Alpha virt. eigenvalues --    0.50750   0.51009   0.51079   0.51267   0.51501
 Alpha virt. eigenvalues --    0.51800   0.51957   0.52232   0.52271   0.52578
 Alpha virt. eigenvalues --    0.52727   0.52782   0.53125   0.53650   0.53825
 Alpha virt. eigenvalues --    0.53979   0.54082   0.54628   0.54667   0.55081
 Alpha virt. eigenvalues --    0.55405   0.55567   0.55973   0.56205   0.56498
 Alpha virt. eigenvalues --    0.56684   0.57236   0.57363   0.57592   0.57777
 Alpha virt. eigenvalues --    0.58082   0.58217   0.58656   0.59341   0.59398
 Alpha virt. eigenvalues --    0.59828   0.60108   0.60480   0.60843   0.60976
 Alpha virt. eigenvalues --    0.61162   0.61430   0.61926   0.62181   0.62362
 Alpha virt. eigenvalues --    0.62625   0.62867   0.62962   0.63223   0.63496
 Alpha virt. eigenvalues --    0.63661   0.64159   0.64211   0.64696   0.64785
 Alpha virt. eigenvalues --    0.64928   0.65355   0.65688   0.65951   0.66066
 Alpha virt. eigenvalues --    0.66201   0.66513   0.66959   0.67472   0.67648
 Alpha virt. eigenvalues --    0.67945   0.68041   0.68267   0.68323   0.69045
 Alpha virt. eigenvalues --    0.69091   0.69660   0.69791   0.70158   0.70291
 Alpha virt. eigenvalues --    0.70489   0.70947   0.71114   0.71171   0.71402
 Alpha virt. eigenvalues --    0.71682   0.72148   0.72213   0.72895   0.73134
 Alpha virt. eigenvalues --    0.73263   0.73400   0.74048   0.74553   0.74718
 Alpha virt. eigenvalues --    0.75199   0.75416   0.75776   0.76022   0.76185
 Alpha virt. eigenvalues --    0.76502   0.76890   0.77090   0.77707   0.78024
 Alpha virt. eigenvalues --    0.78376   0.78815   0.79141   0.79347   0.79592
 Alpha virt. eigenvalues --    0.79775   0.80134   0.80522   0.81214   0.81386
 Alpha virt. eigenvalues --    0.81675   0.82491   0.82947   0.83325   0.83859
 Alpha virt. eigenvalues --    0.83968   0.84402   0.84816   0.85065   0.85484
 Alpha virt. eigenvalues --    0.85592   0.86165   0.86435   0.86736   0.87195
 Alpha virt. eigenvalues --    0.87545   0.87708   0.88133   0.88578   0.88991
 Alpha virt. eigenvalues --    0.89150   0.89502   0.89631   0.89781   0.90766
 Alpha virt. eigenvalues --    0.91069   0.91400   0.91480   0.91939   0.92023
 Alpha virt. eigenvalues --    0.92467   0.92839   0.93154   0.93471   0.93568
 Alpha virt. eigenvalues --    0.93873   0.93949   0.94401   0.94648   0.95272
 Alpha virt. eigenvalues --    0.95358   0.95861   0.96116   0.96724   0.97017
 Alpha virt. eigenvalues --    0.97305   0.97529   0.98004   0.98293   0.98610
 Alpha virt. eigenvalues --    0.98878   0.99219   0.99512   0.99769   0.99981
 Alpha virt. eigenvalues --    1.00438   1.00806   1.01250   1.01428   1.01717
 Alpha virt. eigenvalues --    1.01826   1.02398   1.02706   1.02974   1.03193
 Alpha virt. eigenvalues --    1.03653   1.03950   1.04122   1.04700   1.04960
 Alpha virt. eigenvalues --    1.05122   1.05765   1.06036   1.06664   1.06773
 Alpha virt. eigenvalues --    1.07110   1.07201   1.07574   1.08068   1.08411
 Alpha virt. eigenvalues --    1.08718   1.08812   1.09322   1.09880   1.10072
 Alpha virt. eigenvalues --    1.10468   1.10697   1.10891   1.11524   1.11600
 Alpha virt. eigenvalues --    1.12230   1.12841   1.13115   1.13528   1.13880
 Alpha virt. eigenvalues --    1.14433   1.14780   1.15598   1.16180   1.16548
 Alpha virt. eigenvalues --    1.16951   1.17156   1.17582   1.18603   1.18651
 Alpha virt. eigenvalues --    1.19303   1.19653   1.20074   1.20182   1.20554
 Alpha virt. eigenvalues --    1.21625   1.21754   1.21951   1.22299   1.22547
 Alpha virt. eigenvalues --    1.22941   1.23368   1.23812   1.24376   1.24623
 Alpha virt. eigenvalues --    1.25101   1.25284   1.25507   1.25872   1.26153
 Alpha virt. eigenvalues --    1.26376   1.27418   1.28010   1.28550   1.28663
 Alpha virt. eigenvalues --    1.29198   1.29393   1.29766   1.30077   1.30505
 Alpha virt. eigenvalues --    1.30976   1.31629   1.31690   1.32380   1.32530
 Alpha virt. eigenvalues --    1.32846   1.33993   1.34553   1.34816   1.35649
 Alpha virt. eigenvalues --    1.35675   1.36582   1.36804   1.37332   1.37623
 Alpha virt. eigenvalues --    1.38222   1.38976   1.39857   1.39998   1.40961
 Alpha virt. eigenvalues --    1.41326   1.41785   1.42416   1.42504   1.42957
 Alpha virt. eigenvalues --    1.43469   1.43738   1.44147   1.44450   1.44536
 Alpha virt. eigenvalues --    1.45309   1.45425   1.45843   1.46255   1.46396
 Alpha virt. eigenvalues --    1.46779   1.47141   1.47597   1.47969   1.48198
 Alpha virt. eigenvalues --    1.48445   1.48542   1.48966   1.49089   1.49541
 Alpha virt. eigenvalues --    1.49886   1.50094   1.50404   1.50736   1.51448
 Alpha virt. eigenvalues --    1.51534   1.51740   1.52338   1.52691   1.52903
 Alpha virt. eigenvalues --    1.53222   1.53473   1.53984   1.54158   1.54328
 Alpha virt. eigenvalues --    1.54685   1.55278   1.55529   1.55600   1.56158
 Alpha virt. eigenvalues --    1.56420   1.56736   1.56991   1.57109   1.57491
 Alpha virt. eigenvalues --    1.57798   1.57867   1.58185   1.58767   1.59134
 Alpha virt. eigenvalues --    1.59256   1.59659   1.59768   1.60096   1.60476
 Alpha virt. eigenvalues --    1.60533   1.60889   1.61146   1.61237   1.61842
 Alpha virt. eigenvalues --    1.61985   1.62403   1.62633   1.62800   1.63186
 Alpha virt. eigenvalues --    1.63467   1.63614   1.63979   1.64022   1.64382
 Alpha virt. eigenvalues --    1.64925   1.65027   1.65412   1.65973   1.66260
 Alpha virt. eigenvalues --    1.66800   1.67081   1.67200   1.67864   1.68072
 Alpha virt. eigenvalues --    1.68286   1.68627   1.69011   1.69216   1.69460
 Alpha virt. eigenvalues --    1.69903   1.70529   1.70924   1.71192   1.71799
 Alpha virt. eigenvalues --    1.72121   1.72391   1.72759   1.72883   1.73207
 Alpha virt. eigenvalues --    1.73803   1.74008   1.74197   1.74838   1.75171
 Alpha virt. eigenvalues --    1.75786   1.75898   1.76095   1.76467   1.77079
 Alpha virt. eigenvalues --    1.77824   1.78137   1.78653   1.79322   1.79673
 Alpha virt. eigenvalues --    1.79910   1.80204   1.81238   1.81619   1.82068
 Alpha virt. eigenvalues --    1.82763   1.82848   1.83693   1.83864   1.84341
 Alpha virt. eigenvalues --    1.84576   1.84984   1.85457   1.85685   1.86206
 Alpha virt. eigenvalues --    1.86343   1.86780   1.87305   1.87569   1.87871
 Alpha virt. eigenvalues --    1.88346   1.88409   1.88764   1.89240   1.89444
 Alpha virt. eigenvalues --    1.89529   1.90502   1.90603   1.91169   1.91559
 Alpha virt. eigenvalues --    1.92148   1.92615   1.92795   1.93432   1.93667
 Alpha virt. eigenvalues --    1.94020   1.94310   1.94968   1.95340   1.95454
 Alpha virt. eigenvalues --    1.95773   1.96462   1.96707   1.96909   1.97559
 Alpha virt. eigenvalues --    1.97966   1.98451   1.99261   1.99432   2.00205
 Alpha virt. eigenvalues --    2.00521   2.00794   2.01139   2.01449   2.01622
 Alpha virt. eigenvalues --    2.02267   2.03109   2.03478   2.03832   2.04076
 Alpha virt. eigenvalues --    2.04648   2.04704   2.05060   2.05296   2.05642
 Alpha virt. eigenvalues --    2.05704   2.06260   2.06838   2.06920   2.07343
 Alpha virt. eigenvalues --    2.07835   2.08407   2.08933   2.09482   2.09559
 Alpha virt. eigenvalues --    2.10180   2.10262   2.11208   2.11321   2.11509
 Alpha virt. eigenvalues --    2.12151   2.12178   2.12668   2.12758   2.13031
 Alpha virt. eigenvalues --    2.13767   2.14063   2.14616   2.14789   2.15082
 Alpha virt. eigenvalues --    2.15870   2.15991   2.16509   2.16764   2.17308
 Alpha virt. eigenvalues --    2.17536   2.18252   2.18509   2.19318   2.20067
 Alpha virt. eigenvalues --    2.20210   2.20262   2.20544   2.21113   2.21160
 Alpha virt. eigenvalues --    2.21882   2.22387   2.22935   2.23145   2.23413
 Alpha virt. eigenvalues --    2.24178   2.24434   2.24792   2.25248   2.25450
 Alpha virt. eigenvalues --    2.25731   2.26610   2.27400   2.27742   2.28024
 Alpha virt. eigenvalues --    2.28814   2.28959   2.29191   2.29699   2.30283
 Alpha virt. eigenvalues --    2.30525   2.30975   2.31649   2.32036   2.32274
 Alpha virt. eigenvalues --    2.32801   2.33507   2.33702   2.34129   2.34823
 Alpha virt. eigenvalues --    2.35085   2.36114   2.36191   2.36681   2.37065
 Alpha virt. eigenvalues --    2.37528   2.37762   2.38137   2.38327   2.39021
 Alpha virt. eigenvalues --    2.39264   2.39710   2.40227   2.40504   2.40771
 Alpha virt. eigenvalues --    2.40922   2.41878   2.42798   2.43288   2.43352
 Alpha virt. eigenvalues --    2.43485   2.44003   2.44601   2.45136   2.45478
 Alpha virt. eigenvalues --    2.45713   2.45882   2.46389   2.47049   2.47664
 Alpha virt. eigenvalues --    2.48131   2.48513   2.48985   2.49252   2.50501
 Alpha virt. eigenvalues --    2.50887   2.51167   2.52201   2.52519   2.53076
 Alpha virt. eigenvalues --    2.53704   2.54332   2.54937   2.55322   2.55515
 Alpha virt. eigenvalues --    2.55646   2.55775   2.56734   2.56921   2.57252
 Alpha virt. eigenvalues --    2.57561   2.57969   2.58152   2.58611   2.59001
 Alpha virt. eigenvalues --    2.59100   2.59417   2.59684   2.60223   2.60377
 Alpha virt. eigenvalues --    2.60909   2.61462   2.61601   2.62139   2.62397
 Alpha virt. eigenvalues --    2.62962   2.63109   2.63212   2.63579   2.64220
 Alpha virt. eigenvalues --    2.64390   2.64637   2.65215   2.65573   2.65734
 Alpha virt. eigenvalues --    2.65883   2.67011   2.67032   2.67240   2.67758
 Alpha virt. eigenvalues --    2.68127   2.68476   2.68695   2.69544   2.69612
 Alpha virt. eigenvalues --    2.70286   2.70740   2.71494   2.71780   2.72330
 Alpha virt. eigenvalues --    2.72488   2.72732   2.72984   2.73590   2.73912
 Alpha virt. eigenvalues --    2.73988   2.74136   2.74995   2.75348   2.75429
 Alpha virt. eigenvalues --    2.75719   2.76231   2.76627   2.76722   2.77101
 Alpha virt. eigenvalues --    2.77809   2.78336   2.78678   2.78847   2.79104
 Alpha virt. eigenvalues --    2.79225   2.79742   2.80063   2.80147   2.80685
 Alpha virt. eigenvalues --    2.81022   2.81271   2.81338   2.82770   2.83242
 Alpha virt. eigenvalues --    2.83571   2.83776   2.84061   2.84943   2.85178
 Alpha virt. eigenvalues --    2.85553   2.85797   2.86172   2.86509   2.86842
 Alpha virt. eigenvalues --    2.87340   2.87459   2.87952   2.88026   2.88783
 Alpha virt. eigenvalues --    2.88956   2.89297   2.89699   2.89985   2.90469
 Alpha virt. eigenvalues --    2.90951   2.91177   2.91609   2.92205   2.92432
 Alpha virt. eigenvalues --    2.92527   2.92901   2.93415   2.94197   2.94401
 Alpha virt. eigenvalues --    2.94700   2.95376   2.95789   2.95912   2.96520
 Alpha virt. eigenvalues --    2.96796   2.97333   2.97895   2.98118   2.98695
 Alpha virt. eigenvalues --    2.99121   2.99217   2.99497   2.99766   3.00372
 Alpha virt. eigenvalues --    3.00828   3.01021   3.01385   3.01983   3.02087
 Alpha virt. eigenvalues --    3.02434   3.03112   3.03322   3.03698   3.03784
 Alpha virt. eigenvalues --    3.04324   3.04567   3.05010   3.05303   3.05704
 Alpha virt. eigenvalues --    3.06147   3.06287   3.06564   3.07271   3.07500
 Alpha virt. eigenvalues --    3.07865   3.08047   3.08249   3.08376   3.09467
 Alpha virt. eigenvalues --    3.09532   3.09572   3.10032   3.10288   3.10789
 Alpha virt. eigenvalues --    3.11271   3.11392   3.11679   3.12099   3.12322
 Alpha virt. eigenvalues --    3.12546   3.12926   3.13088   3.13347   3.13543
 Alpha virt. eigenvalues --    3.13840   3.14411   3.14630   3.15310   3.15575
 Alpha virt. eigenvalues --    3.15754   3.15962   3.16286   3.16484   3.17085
 Alpha virt. eigenvalues --    3.17608   3.18054   3.18241   3.18475   3.18793
 Alpha virt. eigenvalues --    3.18976   3.19226   3.19766   3.19878   3.20262
 Alpha virt. eigenvalues --    3.20579   3.20917   3.21310   3.21475   3.21605
 Alpha virt. eigenvalues --    3.22290   3.22812   3.22964   3.22992   3.23235
 Alpha virt. eigenvalues --    3.23486   3.24069   3.24202   3.24873   3.25003
 Alpha virt. eigenvalues --    3.25162   3.25456   3.25947   3.26253   3.26545
 Alpha virt. eigenvalues --    3.26807   3.27213   3.27614   3.27851   3.28209
 Alpha virt. eigenvalues --    3.28561   3.28874   3.29157   3.29240   3.29708
 Alpha virt. eigenvalues --    3.30133   3.30387   3.30643   3.31000   3.31240
 Alpha virt. eigenvalues --    3.31536   3.31686   3.31787   3.32088   3.32537
 Alpha virt. eigenvalues --    3.32649   3.32816   3.33362   3.33535   3.34154
 Alpha virt. eigenvalues --    3.34499   3.34555   3.34938   3.35353   3.35693
 Alpha virt. eigenvalues --    3.36052   3.36410   3.36602   3.37084   3.37256
 Alpha virt. eigenvalues --    3.37446   3.37649   3.38152   3.38236   3.38293
 Alpha virt. eigenvalues --    3.38636   3.38987   3.39142   3.39572   3.39907
 Alpha virt. eigenvalues --    3.40602   3.40753   3.40916   3.41245   3.41439
 Alpha virt. eigenvalues --    3.41646   3.41850   3.42255   3.42752   3.42958
 Alpha virt. eigenvalues --    3.43334   3.43806   3.44281   3.44342   3.44789
 Alpha virt. eigenvalues --    3.45234   3.45624   3.45747   3.46305   3.46637
 Alpha virt. eigenvalues --    3.46813   3.47644   3.47770   3.48038   3.48532
 Alpha virt. eigenvalues --    3.48705   3.48937   3.49632   3.49798   3.50018
 Alpha virt. eigenvalues --    3.50628   3.50657   3.51295   3.51747   3.51867
 Alpha virt. eigenvalues --    3.51999   3.52656   3.53281   3.53449   3.54433
 Alpha virt. eigenvalues --    3.54745   3.55070   3.55393   3.55805   3.56551
 Alpha virt. eigenvalues --    3.56936   3.57469   3.57808   3.58192   3.58469
 Alpha virt. eigenvalues --    3.58688   3.59659   3.59802   3.60390   3.60564
 Alpha virt. eigenvalues --    3.60933   3.61556   3.61864   3.62560   3.63237
 Alpha virt. eigenvalues --    3.63513   3.63686   3.64117   3.64225   3.64902
 Alpha virt. eigenvalues --    3.65006   3.65250   3.66015   3.66557   3.66812
 Alpha virt. eigenvalues --    3.67308   3.67598   3.67771   3.68284   3.68665
 Alpha virt. eigenvalues --    3.68883   3.69426   3.69728   3.70168   3.70832
 Alpha virt. eigenvalues --    3.71046   3.71694   3.72387   3.72529   3.72923
 Alpha virt. eigenvalues --    3.73351   3.73802   3.74358   3.74625   3.75029
 Alpha virt. eigenvalues --    3.75366   3.76565   3.77122   3.77584   3.77758
 Alpha virt. eigenvalues --    3.78280   3.78516   3.79258   3.79425   3.80220
 Alpha virt. eigenvalues --    3.80899   3.81208   3.81797   3.82541   3.82770
 Alpha virt. eigenvalues --    3.83013   3.83639   3.84576   3.85269   3.85428
 Alpha virt. eigenvalues --    3.86342   3.86750   3.87170   3.87450   3.88359
 Alpha virt. eigenvalues --    3.88954   3.89487   3.90033   3.90540   3.91781
 Alpha virt. eigenvalues --    3.92625   3.92718   3.94092   3.94324   3.94781
 Alpha virt. eigenvalues --    3.95157   3.95686   3.96273   3.96666   3.97110
 Alpha virt. eigenvalues --    3.97405   3.98159   3.98607   3.98778   3.99888
 Alpha virt. eigenvalues --    4.00540   4.01132   4.01995   4.02337   4.03334
 Alpha virt. eigenvalues --    4.03990   4.04209   4.04706   4.05216   4.06188
 Alpha virt. eigenvalues --    4.06678   4.07315   4.07668   4.08368   4.09185
 Alpha virt. eigenvalues --    4.09224   4.09928   4.10011   4.11143   4.11534
 Alpha virt. eigenvalues --    4.12134   4.12304   4.13016   4.13934   4.14202
 Alpha virt. eigenvalues --    4.14401   4.14839   4.14976   4.15573   4.16408
 Alpha virt. eigenvalues --    4.16756   4.17659   4.17726   4.18164   4.18875
 Alpha virt. eigenvalues --    4.19162   4.19318   4.20480   4.21120   4.21588
 Alpha virt. eigenvalues --    4.21933   4.23495   4.24110   4.24555   4.25193
 Alpha virt. eigenvalues --    4.25477   4.25792   4.26506   4.27687   4.28018
 Alpha virt. eigenvalues --    4.28968   4.29252   4.29497   4.30343   4.30767
 Alpha virt. eigenvalues --    4.31289   4.31784   4.32682   4.32945   4.33333
 Alpha virt. eigenvalues --    4.34046   4.34860   4.35699   4.36331   4.36980
 Alpha virt. eigenvalues --    4.37668   4.37979   4.38453   4.39039   4.39589
 Alpha virt. eigenvalues --    4.40300   4.40633   4.41226   4.42048   4.42336
 Alpha virt. eigenvalues --    4.43190   4.43834   4.44289   4.45383   4.46305
 Alpha virt. eigenvalues --    4.46850   4.47445   4.47749   4.48484   4.48838
 Alpha virt. eigenvalues --    4.50054   4.50299   4.50623   4.51078   4.52192
 Alpha virt. eigenvalues --    4.52638   4.52934   4.53392   4.54000   4.54988
 Alpha virt. eigenvalues --    4.57281   4.57896   4.58614   4.58712   4.59623
 Alpha virt. eigenvalues --    4.59874   4.61231   4.62380   4.63040   4.63808
 Alpha virt. eigenvalues --    4.64429   4.65119   4.65875   4.66712   4.67265
 Alpha virt. eigenvalues --    4.68505   4.69180   4.69809   4.70600   4.70891
 Alpha virt. eigenvalues --    4.71849   4.72482   4.73908   4.74272   4.75187
 Alpha virt. eigenvalues --    4.76429   4.76920   4.77518   4.78047   4.78707
 Alpha virt. eigenvalues --    4.79499   4.80852   4.81266   4.81712   4.82268
 Alpha virt. eigenvalues --    4.82829   4.83655   4.84596   4.85793   4.87180
 Alpha virt. eigenvalues --    4.87623   4.88741   4.89512   4.90662   4.91166
 Alpha virt. eigenvalues --    4.91307   4.92466   4.93067   4.93384   4.94980
 Alpha virt. eigenvalues --    4.95774   4.96758   4.97764   4.98756   4.99974
 Alpha virt. eigenvalues --    5.00352   5.00846   5.01022   5.03112   5.04017
 Alpha virt. eigenvalues --    5.07437   5.09226   5.11605   5.11991   5.12844
 Alpha virt. eigenvalues --    5.14620   5.15369   5.15789   5.16380   5.16653
 Alpha virt. eigenvalues --    5.16996   5.17592   5.19282   5.20227   5.20328
 Alpha virt. eigenvalues --    5.21059   5.22294   5.22835   5.23333   5.23659
 Alpha virt. eigenvalues --    5.24695   5.26332   5.26949   5.27653   5.29407
 Alpha virt. eigenvalues --    5.31958   5.32346   5.32943   5.34284   5.34751
 Alpha virt. eigenvalues --    5.36375   5.37320   5.39707   5.41074   5.42751
 Alpha virt. eigenvalues --    5.43920   5.45045   5.46202   5.47268   5.49118
 Alpha virt. eigenvalues --    5.49591   5.51088   5.52669   5.52920   5.55448
 Alpha virt. eigenvalues --    5.57657   5.58455   5.58767   5.59632   5.59987
 Alpha virt. eigenvalues --    5.61229   5.62621   5.64472   5.65947   5.67446
 Alpha virt. eigenvalues --    5.70129   5.72134   5.72834   5.74219   5.74832
 Alpha virt. eigenvalues --    5.77476   5.79525   5.80337   5.81273   5.84128
 Alpha virt. eigenvalues --    5.87408   5.90352   5.91172   5.92926   5.95471
 Alpha virt. eigenvalues --    5.97694   6.02451   6.03650   6.04768   6.06804
 Alpha virt. eigenvalues --    6.07134   6.07809   6.13761   6.15711   6.18218
 Alpha virt. eigenvalues --    6.22153   6.28150   6.28694   6.30596   6.31089
 Alpha virt. eigenvalues --    6.33652   6.34442   6.34936   6.42386   6.43461
 Alpha virt. eigenvalues --    6.46067   6.47618   6.52629   6.53138   6.64025
 Alpha virt. eigenvalues --    6.67427   6.75685   6.76601   6.82449   6.83109
 Alpha virt. eigenvalues --    6.93433   6.94032   7.01377   7.02643   7.12181
 Alpha virt. eigenvalues --    7.13180   7.15411   7.16492   7.29863   7.32405
 Alpha virt. eigenvalues --    8.97203   9.15608   9.36027  19.49688  22.36283
 Alpha virt. eigenvalues --   22.43431  22.47655  22.55609  22.56697  22.57327
 Alpha virt. eigenvalues --   22.59951  22.63254  22.67799  22.72083  22.74042
 Alpha virt. eigenvalues --   22.77464  22.80687  22.87042  22.88459  22.89887
 Alpha virt. eigenvalues --   22.91213  22.95432  23.01348  23.02929  23.10916
 Alpha virt. eigenvalues --   23.20848  23.23553  23.30599  23.34156  23.38041
 Alpha virt. eigenvalues --   23.48367  23.53108  23.58859  23.61409  23.63010
 Alpha virt. eigenvalues --   23.71674  23.74900  23.78422  23.83481  32.84228
 Alpha virt. eigenvalues --   32.86126  32.88389  32.94411  43.92777  43.94645
 Alpha virt. eigenvalues --   43.97559  43.99622
          Condensed to atoms (all electrons):
 Mulliken charges:
               1
     1  C   -0.299000
     2  S   -0.220913
     3  C   -0.506037
     4  C   -0.510006
     5  C   -0.488303
     6  C   -0.481998
     7  C    0.280044
     8  C    0.011533
     9  C   -0.057753
    10  C    0.353615
    11  C   -0.421673
    12  C   -0.359572
    13  C   -0.159912
    14  C    0.263493
    15  O   -0.341378
    16  O   -0.367608
    17  C    0.266320
    18  C   -0.081808
    19  C    0.075813
    20  C    0.200302
    21  C   -0.350187
    22  C   -0.115089
    23  C   -0.413325
    24  C    0.314674
    25  C   -0.088085
    26  C    0.023119
    27  C    0.285896
    28  C   -0.376263
    29  C   -0.157063
    30  C   -0.394091
    31  C    0.276883
    32  C   -0.054297
    33  C    0.069645
    34  C    0.267500
    35  C   -0.395577
    36  C   -0.405638
    37  C   -0.190754
    38  C    0.226674
    39  O   -0.346118
    40  O   -0.320842
    41  N   -0.200619
    42  N   -0.112489
    43  N   -0.091320
    44  N   -0.167590
    45  Fe   0.107024
    46  H    0.147983
    47  H    0.149335
    48  H    0.141228
    49  H    0.161546
    50  H    0.340992
    51  H    0.129723
    52  H    0.151674
    53  H    0.152826
    54  H    0.134563
    55  H    0.344240
    56  H    0.140169
    57  H    0.133776
    58  H    0.135778
    59  H    0.131943
    60  H    0.160236
    61  H    0.149219
    62  H    0.130273
    63  H    0.141091
    64  H    0.110146
    65  H    0.127397
    66  H    0.149090
    67  H    0.137813
    68  H    0.120323
    69  H    0.131886
    70  H    0.153338
    71  H    0.145228
    72  H    0.167297
    73  H    0.147411
    74  H    0.117257
    75  H    0.134412
    76  H    0.137151
    77  H    0.145353
    78  H    0.153924
    79  H    0.147696
    80  H    0.142991
    81  H    0.107466
 Sum of Mulliken charges =  -0.00000
 Mulliken charges with hydrogens summed into heavy atoms:
               1
     1  C    0.139546
     2  S   -0.059367
     3  C   -0.345801
     4  C   -0.399860
     5  C   -0.321006
     6  C   -0.361675
     7  C    0.280044
     8  C    0.011533
     9  C   -0.057753
    10  C    0.353615
    11  C   -0.001089
    12  C   -0.072184
    13  C    0.121486
    14  C    0.263493
    15  O   -0.000387
    16  O   -0.367608
    17  C    0.266320
    18  C   -0.081808
    19  C    0.075813
    20  C    0.200302
    21  C    0.048893
    22  C   -0.007623
    23  C   -0.122638
    24  C    0.314674
    25  C   -0.088085
    26  C    0.023119
    27  C    0.285896
    28  C    0.054189
    29  C   -0.019912
    30  C   -0.094814
    31  C    0.276883
    32  C   -0.054297
    33  C    0.069645
    34  C    0.267500
    35  C    0.018722
    36  C   -0.137917
    37  C    0.083191
    38  C    0.226674
    39  O   -0.346118
    40  O    0.023398
    41  N   -0.200619
    42  N   -0.112489
    43  N   -0.091320
    44  N   -0.167590
    45  Fe   0.107024
 Electronic spatial extent (au):  <R**2>=          30038.5096
 Charge=              0.0000 electrons
 Dipole moment (field-independent basis, Debye):
    X=             -1.9651    Y=             -1.6731    Z=              0.0967  Tot=              2.5827
 Quadrupole moment (field-independent basis, Debye-Ang):
   XX=           -298.8596   YY=           -271.2315   ZZ=           -275.3150
   XY=              9.8661   XZ=            -10.7370   YZ=            -12.5743
 Traceless Quadrupole moment (field-independent basis, Debye-Ang):
   XX=            -17.0576   YY=             10.5705   ZZ=              6.4870
   XY=              9.8661   XZ=            -10.7370   YZ=            -12.5743
 Octapole moment (field-independent basis, Debye-Ang**2):
  XXX=           -145.7344  YYY=            -63.0281  ZZZ=             47.6270  XYY=            -89.4349
  XXY=             54.4962  XXZ=            -94.9575  XZZ=            -24.7564  YZZ=            -24.1015
  YYZ=             -4.9637  XYZ=            -67.5350
 Hexadecapole moment (field-independent basis, Debye-Ang**3):
 XXXX=         -26492.7512 YYYY=         -13542.9867 ZZZZ=          -1799.5516 XXXY=            169.9997
 XXXZ=           -752.5249 YYYX=            578.5917 YYYZ=            -28.5424 ZZZX=           -211.0365
 ZZZY=            -76.0883 XXYY=          -7336.3921 XXZZ=          -4681.0953 YYZZ=          -2667.6958
 XXYZ=           -581.2703 YYXZ=             -3.5601 ZZXY=            -68.5123
 N-N= 6.503811612439D+03 E-N=-2.132806233101D+04  KE= 3.524777290001D+03
 ******************************Gaussian NBO Version 3.1******************************
             N A T U R A L   A T O M I C   O R B I T A L   A N D
          N A T U R A L   B O N D   O R B I T A L   A N A L Y S I S
 ******************************Gaussian NBO Version 3.1******************************
       /RESON  / : Allow strongly delocalized NBO set

 Analyzing the SCF density

 Job title: 1cpo_II_S_nbo                                                   

 Storage needed:   8001878 in NPA,  10652143 in NBO (2147450033 available)
 GSVD:  LWork=     1121911 too small for GESVD, short by     1946714 words or     1946714 for optimal perf.


 NATURAL POPULATIONS:  Natural atomic orbital occupancies 
                                                          
   NAO  Atom  No  lang   Type(AO)    Occupancy      Energy
 ----------------------------------------------------------
     1    C    1  S      Cor( 1S)     1.99930     -10.10484
     2    C    1  S      Val( 2S)     1.16744      -0.36914
     3    C    1  S      Ryd( 3S)     0.00092       1.17310
     4    C    1  S      Ryd( 4S)     0.00034       2.23579
     5    C    1  S      Ryd( 5S)     0.00000      21.34295
     6    C    1  px     Val( 2p)     1.09770      -0.16151
     7    C    1  px     Ryd( 4p)     0.00055       1.59156
     8    C    1  px     Ryd( 3p)     0.00047       0.55445
     9    C    1  py     Val( 2p)     1.19729      -0.14643
    10    C    1  py     Ryd( 4p)     0.00051       1.68004
    11    C    1  py     Ryd( 3p)     0.00035       0.61083
    12    C    1  pz     Val( 2p)     1.26149      -0.14114
    13    C    1  pz     Ryd( 4p)     0.00041       1.80320
    14    C    1  pz     Ryd( 3p)     0.00045       0.74742
    15    C    1  dxy    Ryd( 3d)     0.00422       1.32415
    16    C    1  dxy    Ryd( 4d)     0.00011       3.10037
    17    C    1  dxz    Ryd( 3d)     0.00095       0.92382
    18    C    1  dxz    Ryd( 4d)     0.00011       2.96734
    19    C    1  dyz    Ryd( 3d)     0.00210       1.46512
    20    C    1  dyz    Ryd( 4d)     0.00021       3.14339
    21    C    1  dx2y2  Ryd( 3d)     0.00208       0.97868
    22    C    1  dx2y2  Ryd( 4d)     0.00012       2.94780
    23    C    1  dz2    Ryd( 3d)     0.00279       1.26764
    24    C    1  dz2    Ryd( 4d)     0.00011       3.08358
    25    C    1  f(0)   Ryd( 4f)     0.00003       3.17402
    26    C    1  f(C1)  Ryd( 4f)     0.00011       3.33688
    27    C    1  f(S1)  Ryd( 4f)     0.00035       3.80150
    28    C    1  f(C2)  Ryd( 4f)     0.00001       3.46685
    29    C    1  f(S2)  Ryd( 4f)     0.00005       3.15583
    30    C    1  f(C3)  Ryd( 4f)     0.00003       3.17908
    31    C    1  f(S3)  Ryd( 4f)     0.00032       3.46214

    32    S    2  S      Cor( 1S)     2.00000     -87.75444
    33    S    2  S      Cor( 2S)     1.99952      -9.09174
    34    S    2  S      Val( 3S)     1.62905      -0.69299
    35    S    2  S      Ryd( 4S)     0.00352       0.88021
    36    S    2  S      Ryd( 5S)     0.00001      18.63125
    37    S    2  px     Cor( 2p)     1.99991      -5.93055
    38    S    2  px     Val( 3p)     1.18892      -0.20158
    39    S    2  px     Ryd( 4p)     0.00473       0.64938
    40    S    2  px     Ryd( 5p)     0.00008       2.26780
    41    S    2  px     Ryd( 6p)     0.00000       8.79726
    42    S    2  py     Cor( 2p)     1.99997      -5.92760
    43    S    2  py     Val( 3p)     1.72523      -0.24724
    44    S    2  py     Ryd( 4p)     0.00419       0.53388
    45    S    2  py     Ryd( 5p)     0.00006       2.05288
    46    S    2  py     Ryd( 6p)     0.00000       8.79193
    47    S    2  pz     Cor( 2p)     1.99991      -5.92981
    48    S    2  pz     Val( 3p)     1.41874      -0.21335
    49    S    2  pz     Ryd( 4p)     0.00168       0.95044
    50    S    2  pz     Ryd( 5p)     0.00011       2.31155
    51    S    2  pz     Ryd( 6p)     0.00000       8.85615
    52    S    2  dxy    Ryd( 3d)     0.00286       1.56674
    53    S    2  dxy    Ryd( 4d)     0.00024       1.85940
    54    S    2  dxz    Ryd( 3d)     0.00584       1.17908
    55    S    2  dxz    Ryd( 4d)     0.00031       1.86886
    56    S    2  dyz    Ryd( 3d)     0.00231       0.92761
    57    S    2  dyz    Ryd( 4d)     0.00049       1.81993
    58    S    2  dx2y2  Ryd( 3d)     0.00222       1.15247
    59    S    2  dx2y2  Ryd( 4d)     0.00008       1.73571
    60    S    2  dz2    Ryd( 3d)     0.00343       1.19395
    61    S    2  dz2    Ryd( 4d)     0.00049       1.94252
    62    S    2  f(0)   Ryd( 4f)     0.00022       1.98925
    63    S    2  f(C1)  Ryd( 4f)     0.00022       2.15395
    64    S    2  f(S1)  Ryd( 4f)     0.00012       1.89204
    65    S    2  f(C2)  Ryd( 4f)     0.00010       1.95019
    66    S    2  f(S2)  Ryd( 4f)     0.00023       2.01066
    67    S    2  f(C3)  Ryd( 4f)     0.00012       2.04078
    68    S    2  f(S3)  Ryd( 4f)     0.00008       1.99336

    69    C    3  S      Cor( 1S)     1.99902     -10.07241
    70    C    3  S      Val( 2S)     0.95610      -0.21087
    71    C    3  S      Ryd( 3S)     0.00090       1.55070
    72    C    3  S      Ryd( 4S)     0.00001       1.75829
    73    C    3  S      Ryd( 5S)     0.00000      21.47954
    74    C    3  px     Val( 2p)     1.17108      -0.06433
    75    C    3  px     Ryd( 3p)     0.00246       0.96791
    76    C    3  px     Ryd( 4p)     0.00051       2.03229
    77    C    3  py     Val( 2p)     1.04934      -0.05505
    78    C    3  py     Ryd( 3p)     0.00151       1.02279
    79    C    3  py     Ryd( 4p)     0.00039       2.11512
    80    C    3  pz     Val( 2p)     1.06335      -0.12399
    81    C    3  pz     Ryd( 3p)     0.00374       0.52425
    82    C    3  pz     Ryd( 4p)     0.00028       1.55832
    83    C    3  dxy    Ryd( 3d)     0.00208       2.12156
    84    C    3  dxy    Ryd( 4d)     0.00015       3.79490
    85    C    3  dxz    Ryd( 3d)     0.00037       1.37681
    86    C    3  dxz    Ryd( 4d)     0.00010       2.85567
    87    C    3  dyz    Ryd( 3d)     0.00068       1.56988
    88    C    3  dyz    Ryd( 4d)     0.00014       3.08215
    89    C    3  dx2y2  Ryd( 3d)     0.00123       2.36513
    90    C    3  dx2y2  Ryd( 4d)     0.00027       4.08816
    91    C    3  dz2    Ryd( 3d)     0.00129       1.81303
    92    C    3  dz2    Ryd( 4d)     0.00006       3.49458
    93    C    3  f(0)   Ryd( 4f)     0.00025       3.40551
    94    C    3  f(C1)  Ryd( 4f)     0.00011       3.68588
    95    C    3  f(S1)  Ryd( 4f)     0.00010       4.05038
    96    C    3  f(C2)  Ryd( 4f)     0.00002       3.47443
    97    C    3  f(S2)  Ryd( 4f)     0.00002       3.51692
    98    C    3  f(C3)  Ryd( 4f)     0.00015       4.45867
    99    C    3  f(S3)  Ryd( 4f)     0.00003       4.25111

   100    C    4  S      Cor( 1S)     1.99899     -10.06444
   101    C    4  S      Val( 2S)     0.94825      -0.20048
   102    C    4  S      Ryd( 3S)     0.00088       1.52579
   103    C    4  S      Ryd( 4S)     0.00001       1.58154
   104    C    4  S      Ryd( 5S)     0.00000      21.29071
   105    C    4  px     Val( 2p)     1.05218      -0.05099
   106    C    4  px     Ryd( 3p)     0.00163       1.03085
   107    C    4  px     Ryd( 4p)     0.00038       1.98840
   108    C    4  py     Val( 2p)     1.17184      -0.06220
   109    C    4  py     Ryd( 3p)     0.00243       0.98113
   110    C    4  py     Ryd( 4p)     0.00042       1.87692
   111    C    4  pz     Val( 2p)     1.03992      -0.12004
   112    C    4  pz     Ryd( 3p)     0.00329       0.52613
   113    C    4  pz     Ryd( 4p)     0.00022       1.44255
   114    C    4  dxy    Ryd( 3d)     0.00223       2.11001
   115    C    4  dxy    Ryd( 4d)     0.00019       3.68663
   116    C    4  dxz    Ryd( 3d)     0.00075       1.58203
   117    C    4  dxz    Ryd( 4d)     0.00012       3.07212
   118    C    4  dyz    Ryd( 3d)     0.00033       1.39674
   119    C    4  dyz    Ryd( 4d)     0.00008       2.84718
   120    C    4  dx2y2  Ryd( 3d)     0.00111       2.34891
   121    C    4  dx2y2  Ryd( 4d)     0.00029       4.09544
   122    C    4  dz2    Ryd( 3d)     0.00124       1.78532
   123    C    4  dz2    Ryd( 4d)     0.00006       3.46392
   124    C    4  f(0)   Ryd( 4f)     0.00025       3.42439
   125    C    4  f(C1)  Ryd( 4f)     0.00010       4.07029
   126    C    4  f(S1)  Ryd( 4f)     0.00011       3.67633
   127    C    4  f(C2)  Ryd( 4f)     0.00002       3.48766
   128    C    4  f(S2)  Ryd( 4f)     0.00002       3.52669
   129    C    4  f(C3)  Ryd( 4f)     0.00003       4.21566
   130    C    4  f(S3)  Ryd( 4f)     0.00015       4.47886

   131    C    5  S      Cor( 1S)     1.99902     -10.06844
   132    C    5  S      Val( 2S)     0.96196      -0.20828
   133    C    5  S      Ryd( 3S)     0.00089       1.55710
   134    C    5  S      Ryd( 4S)     0.00001       1.59902
   135    C    5  S      Ryd( 5S)     0.00000      21.43796
   136    C    5  px     Val( 2p)     1.16895      -0.06165
   137    C    5  px     Ryd( 3p)     0.00247       0.95004
   138    C    5  px     Ryd( 4p)     0.00053       1.88545
   139    C    5  py     Val( 2p)     1.04091      -0.04709
   140    C    5  py     Ryd( 3p)     0.00180       0.98921
   141    C    5  py     Ryd( 4p)     0.00044       1.99890
   142    C    5  pz     Val( 2p)     1.04152      -0.11363
   143    C    5  pz     Ryd( 3p)     0.00321       0.52429
   144    C    5  pz     Ryd( 4p)     0.00025       1.50204
   145    C    5  dxy    Ryd( 3d)     0.00211       2.10553
   146    C    5  dxy    Ryd( 4d)     0.00015       3.68604
   147    C    5  dxz    Ryd( 3d)     0.00051       1.46920
   148    C    5  dxz    Ryd( 4d)     0.00007       2.92087
   149    C    5  dyz    Ryd( 3d)     0.00070       1.60765
   150    C    5  dyz    Ryd( 4d)     0.00013       3.08340
   151    C    5  dx2y2  Ryd( 3d)     0.00117       2.31686
   152    C    5  dx2y2  Ryd( 4d)     0.00026       4.04334
   153    C    5  dz2    Ryd( 3d)     0.00115       1.77477
   154    C    5  dz2    Ryd( 4d)     0.00007       3.41110
   155    C    5  f(0)   Ryd( 4f)     0.00022       3.50668
   156    C    5  f(C1)  Ryd( 4f)     0.00012       3.53669
   157    C    5  f(S1)  Ryd( 4f)     0.00010       4.00635
   158    C    5  f(C2)  Ryd( 4f)     0.00004       3.56790
   159    C    5  f(S2)  Ryd( 4f)     0.00003       3.57581
   160    C    5  f(C3)  Ryd( 4f)     0.00014       4.40916
   161    C    5  f(S3)  Ryd( 4f)     0.00003       4.20151

   162    C    6  S      Cor( 1S)     1.99900     -10.06572
   163    C    6  S      Val( 2S)     0.95474      -0.20418
   164    C    6  S      Ryd( 3S)     0.00090       1.54220
   165    C    6  S      Ryd( 4S)     0.00001       1.56093
   166    C    6  S      Ryd( 5S)     0.00000      21.36143
   167    C    6  px     Val( 2p)     1.04919      -0.04999
   168    C    6  px     Ryd( 3p)     0.00154       0.99375
   169    C    6  px     Ryd( 4p)     0.00043       1.95830
   170    C    6  py     Val( 2p)     1.17231      -0.06000
   171    C    6  py     Ryd( 3p)     0.00228       0.96257
   172    C    6  py     Ryd( 4p)     0.00044       1.90436
   173    C    6  pz     Val( 2p)     1.04263      -0.11727
   174    C    6  pz     Ryd( 3p)     0.00328       0.51703
   175    C    6  pz     Ryd( 4p)     0.00029       1.47428
   176    C    6  dxy    Ryd( 3d)     0.00217       2.12517
   177    C    6  dxy    Ryd( 4d)     0.00016       3.68657
   178    C    6  dxz    Ryd( 3d)     0.00065       1.60082
   179    C    6  dxz    Ryd( 4d)     0.00012       3.06476
   180    C    6  dyz    Ryd( 3d)     0.00032       1.40764
   181    C    6  dyz    Ryd( 4d)     0.00007       2.82276
   182    C    6  dx2y2  Ryd( 3d)     0.00117       2.35858
   183    C    6  dx2y2  Ryd( 4d)     0.00027       4.06897
   184    C    6  dz2    Ryd( 3d)     0.00130       1.81711
   185    C    6  dz2    Ryd( 4d)     0.00006       3.45885
   186    C    6  f(0)   Ryd( 4f)     0.00026       3.40762
   187    C    6  f(C1)  Ryd( 4f)     0.00010       4.04659
   188    C    6  f(S1)  Ryd( 4f)     0.00011       3.69141
   189    C    6  f(C2)  Ryd( 4f)     0.00002       3.48382
   190    C    6  f(S2)  Ryd( 4f)     0.00002       3.52178
   191    C    6  f(C3)  Ryd( 4f)     0.00002       4.22419
   192    C    6  f(S3)  Ryd( 4f)     0.00015       4.46273

   193    C    7  S      Cor( 1S)     1.99908     -10.11050
   194    C    7  S      Val( 2S)     0.87111      -0.17033
   195    C    7  S      Ryd( 3S)     0.00200       1.27812
   196    C    7  S      Ryd( 4S)     0.00048       1.60377
   197    C    7  S      Ryd( 5S)     0.00001      21.46736
   198    C    7  px     Val( 2p)     0.91699      -0.04055
   199    C    7  px     Ryd( 3p)     0.00513       1.38263
   200    C    7  px     Ryd( 4p)     0.00048       1.67244
   201    C    7  py     Val( 2p)     1.05563      -0.05586
   202    C    7  py     Ryd( 3p)     0.00359       1.22730
   203    C    7  py     Ryd( 4p)     0.00035       1.87134
   204    C    7  pz     Val( 2p)     0.98507      -0.11154
   205    C    7  pz     Ryd( 3p)     0.00196       0.70786
   206    C    7  pz     Ryd( 4p)     0.00025       1.42492
   207    C    7  dxy    Ryd( 3d)     0.00083       2.98732
   208    C    7  dxy    Ryd( 4d)     0.00073       3.84616
   209    C    7  dxz    Ryd( 3d)     0.00074       1.43030
   210    C    7  dxz    Ryd( 4d)     0.00027       3.30418
   211    C    7  dyz    Ryd( 3d)     0.00077       1.37709
   212    C    7  dyz    Ryd( 4d)     0.00014       3.29952
   213    C    7  dx2y2  Ryd( 3d)     0.00084       2.75444
   214    C    7  dx2y2  Ryd( 4d)     0.00074       4.14936
   215    C    7  dz2    Ryd( 3d)     0.00047       2.07368
   216    C    7  dz2    Ryd( 4d)     0.00011       3.81675
   217    C    7  f(0)   Ryd( 4f)     0.00015       3.53404
   218    C    7  f(C1)  Ryd( 4f)     0.00003       3.76457
   219    C    7  f(S1)  Ryd( 4f)     0.00007       3.93861
   220    C    7  f(C2)  Ryd( 4f)     0.00002       3.69239
   221    C    7  f(S2)  Ryd( 4f)     0.00002       3.55424
   222    C    7  f(C3)  Ryd( 4f)     0.00012       4.42658
   223    C    7  f(S3)  Ryd( 4f)     0.00002       4.57553

   224    C    8  S      Cor( 1S)     1.99884     -10.06438
   225    C    8  S      Val( 2S)     0.90564      -0.18269
   226    C    8  S      Ryd( 3S)     0.00100       1.19480
   227    C    8  S      Ryd( 4S)     0.00056       1.91433
   228    C    8  S      Ryd( 5S)     0.00000      20.93904
   229    C    8  px     Val( 2p)     1.03891      -0.04873
   230    C    8  px     Ryd( 3p)     0.00317       1.34757
   231    C    8  px     Ryd( 4p)     0.00056       2.01986
   232    C    8  py     Val( 2p)     1.04151      -0.05659
   233    C    8  py     Ryd( 3p)     0.00378       1.07964
   234    C    8  py     Ryd( 4p)     0.00063       1.87411
   235    C    8  pz     Val( 2p)     1.03749      -0.10987
   236    C    8  pz     Ryd( 3p)     0.00271       0.69421
   237    C    8  pz     Ryd( 4p)     0.00017       1.49295
   238    C    8  dxy    Ryd( 3d)     0.00128       2.49404
   239    C    8  dxy    Ryd( 4d)     0.00051       3.88227
   240    C    8  dxz    Ryd( 3d)     0.00113       1.52836
   241    C    8  dxz    Ryd( 4d)     0.00028       3.31474
   242    C    8  dyz    Ryd( 3d)     0.00051       1.44319
   243    C    8  dyz    Ryd( 4d)     0.00016       3.14957
   244    C    8  dx2y2  Ryd( 3d)     0.00085       2.57381
   245    C    8  dx2y2  Ryd( 4d)     0.00049       3.99147
   246    C    8  dz2    Ryd( 3d)     0.00116       2.17715
   247    C    8  dz2    Ryd( 4d)     0.00005       3.72069
   248    C    8  f(0)   Ryd( 4f)     0.00020       3.54054
   249    C    8  f(C1)  Ryd( 4f)     0.00013       3.89220
   250    C    8  f(S1)  Ryd( 4f)     0.00006       3.85864
   251    C    8  f(C2)  Ryd( 4f)     0.00002       3.60315
   252    C    8  f(S2)  Ryd( 4f)     0.00003       3.59620
   253    C    8  f(C3)  Ryd( 4f)     0.00012       4.45348
   254    C    8  f(S3)  Ryd( 4f)     0.00008       4.44879

   255    C    9  S      Cor( 1S)     1.99883     -10.06761
   256    C    9  S      Val( 2S)     0.90864      -0.18390
   257    C    9  S      Ryd( 4S)     0.00070       1.94059
   258    C    9  S      Ryd( 3S)     0.00001       1.82188
   259    C    9  S      Ryd( 5S)     0.00000      20.98780
   260    C    9  px     Val( 2p)     1.04570      -0.05510
   261    C    9  px     Ryd( 3p)     0.00322       1.15809
   262    C    9  px     Ryd( 4p)     0.00026       1.72624
   263    C    9  py     Val( 2p)     1.04064      -0.05093
   264    C    9  py     Ryd( 3p)     0.00278       1.40673
   265    C    9  py     Ryd( 4p)     0.00051       1.77440
   266    C    9  pz     Val( 2p)     1.01014      -0.10605
   267    C    9  pz     Ryd( 3p)     0.00204       0.77794
   268    C    9  pz     Ryd( 4p)     0.00034       1.28917
   269    C    9  dxy    Ryd( 3d)     0.00125       2.00644
   270    C    9  dxy    Ryd( 4d)     0.00071       3.79071
   271    C    9  dxz    Ryd( 3d)     0.00069       1.29775
   272    C    9  dxz    Ryd( 4d)     0.00011       3.17342
   273    C    9  dyz    Ryd( 3d)     0.00054       1.27942
   274    C    9  dyz    Ryd( 4d)     0.00056       3.16182
   275    C    9  dx2y2  Ryd( 3d)     0.00071       2.27661
   276    C    9  dx2y2  Ryd( 4d)     0.00055       3.99164
   277    C    9  dz2    Ryd( 3d)     0.00117       1.74572
   278    C    9  dz2    Ryd( 4d)     0.00007       3.68210
   279    C    9  f(0)   Ryd( 4f)     0.00023       3.50567
   280    C    9  f(C1)  Ryd( 4f)     0.00006       3.90161
   281    C    9  f(S1)  Ryd( 4f)     0.00014       3.84901
   282    C    9  f(C2)  Ryd( 4f)     0.00002       3.50955
   283    C    9  f(S2)  Ryd( 4f)     0.00003       3.60970
   284    C    9  f(C3)  Ryd( 4f)     0.00004       4.37850
   285    C    9  f(S3)  Ryd( 4f)     0.00017       4.45226

   286    C   10  S      Cor( 1S)     1.99905     -10.10457
   287    C   10  S      Val( 2S)     0.86687      -0.16429
   288    C   10  S      Ryd( 3S)     0.00253       1.11096
   289    C   10  S      Ryd( 4S)     0.00077       1.77215
   290    C   10  S      Ryd( 5S)     0.00001      21.71225
   291    C   10  px     Val( 2p)     1.06153      -0.05591
   292    C   10  px     Ryd( 3p)     0.00352       1.21978
   293    C   10  px     Ryd( 4p)     0.00037       1.83825
   294    C   10  py     Val( 2p)     0.91792      -0.04038
   295    C   10  py     Ryd( 3p)     0.00510       1.34935
   296    C   10  py     Ryd( 4p)     0.00065       1.61936
   297    C   10  pz     Val( 2p)     0.99470      -0.11167
   298    C   10  pz     Ryd( 3p)     0.00213       0.73054
   299    C   10  pz     Ryd( 4p)     0.00037       1.49755
   300    C   10  dxy    Ryd( 3d)     0.00094       2.85075
   301    C   10  dxy    Ryd( 4d)     0.00077       3.90293
   302    C   10  dxz    Ryd( 3d)     0.00107       1.41154
   303    C   10  dxz    Ryd( 4d)     0.00012       3.28185
   304    C   10  dyz    Ryd( 3d)     0.00068       1.45017
   305    C   10  dyz    Ryd( 4d)     0.00024       3.24278
   306    C   10  dx2y2  Ryd( 3d)     0.00084       2.82906
   307    C   10  dx2y2  Ryd( 4d)     0.00073       4.08702
   308    C   10  dz2    Ryd( 3d)     0.00049       2.04581
   309    C   10  dz2    Ryd( 4d)     0.00012       3.79943
   310    C   10  f(0)   Ryd( 4f)     0.00015       3.54566
   311    C   10  f(C1)  Ryd( 4f)     0.00006       3.99201
   312    C   10  f(S1)  Ryd( 4f)     0.00003       3.74385
   313    C   10  f(C2)  Ryd( 4f)     0.00004       3.65948
   314    C   10  f(S2)  Ryd( 4f)     0.00002       3.60068
   315    C   10  f(C3)  Ryd( 4f)     0.00004       4.54033
   316    C   10  f(S3)  Ryd( 4f)     0.00010       4.48094

   317    C   11  S      Cor( 1S)     1.99940     -10.06924
   318    C   11  S      Val( 2S)     1.09224      -0.29417
   319    C   11  S      Ryd( 3S)     0.00080       1.16483
   320    C   11  S      Ryd( 4S)     0.00021       1.73025
   321    C   11  S      Ryd( 5S)     0.00000      21.74373
   322    C   11  px     Val( 2p)     1.22929      -0.11356
   323    C   11  px     Ryd( 3p)     0.00136       0.76830
   324    C   11  px     Ryd( 4p)     0.00008       1.45784
   325    C   11  py     Val( 2p)     1.08428      -0.10627
   326    C   11  py     Ryd( 3p)     0.00034       0.71858
   327    C   11  py     Ryd( 4p)     0.00051       1.58600
   328    C   11  pz     Val( 2p)     1.22412      -0.11463
   329    C   11  pz     Ryd( 3p)     0.00093       0.67829
   330    C   11  pz     Ryd( 4p)     0.00023       1.68459
   331    C   11  dxy    Ryd( 4d)     0.00032       3.16792
   332    C   11  dxy    Ryd( 3d)     0.00003       2.75167
   333    C   11  dxz    Ryd( 4d)     0.00052       2.93046
   334    C   11  dxz    Ryd( 3d)     0.00004       2.45423
   335    C   11  dyz    Ryd( 4d)     0.00059       2.86954
   336    C   11  dyz    Ryd( 3d)     0.00009       2.30079
   337    C   11  dx2y2  Ryd( 4d)     0.00083       3.60593
   338    C   11  dx2y2  Ryd( 3d)     0.00003       2.53504
   339    C   11  dz2    Ryd( 4d)     0.00055       3.08700
   340    C   11  dz2    Ryd( 3d)     0.00007       2.60164
   341    C   11  f(0)   Ryd( 4f)     0.00005       3.48518
   342    C   11  f(C1)  Ryd( 4f)     0.00003       3.34389
   343    C   11  f(S1)  Ryd( 4f)     0.00008       3.62844
   344    C   11  f(C2)  Ryd( 4f)     0.00006       3.50969
   345    C   11  f(S2)  Ryd( 4f)     0.00000       3.43564
   346    C   11  f(C3)  Ryd( 4f)     0.00003       3.49730
   347    C   11  f(S3)  Ryd( 4f)     0.00009       3.70260

   348    C   12  S      Cor( 1S)     1.99931     -10.08744
   349    C   12  S      Val( 2S)     1.03572      -0.28308
   350    C   12  S      Ryd( 3S)     0.00096       1.64740
   351    C   12  S      Ryd( 4S)     0.00006       1.86808
   352    C   12  S      Ryd( 5S)     0.00000      21.53807
   353    C   12  px     Val( 2p)     1.06125      -0.10606
   354    C   12  px     Ryd( 3p)     0.00148       0.66618
   355    C   12  px     Ryd( 4p)     0.00078       1.76328
   356    C   12  py     Val( 2p)     1.22265      -0.11441
   357    C   12  py     Ryd( 3p)     0.00275       0.88838
   358    C   12  py     Ryd( 4p)     0.00056       1.64741
   359    C   12  pz     Val( 2p)     1.08415      -0.11047
   360    C   12  pz     Ryd( 3p)     0.00121       0.48408
   361    C   12  pz     Ryd( 4p)     0.00067       1.64031
   362    C   12  dxy    Ryd( 3d)     0.00064       1.74978
   363    C   12  dxy    Ryd( 4d)     0.00018       3.00707
   364    C   12  dxz    Ryd( 3d)     0.00069       1.68246
   365    C   12  dxz    Ryd( 4d)     0.00023       3.19180
   366    C   12  dyz    Ryd( 3d)     0.00090       1.68417
   367    C   12  dyz    Ryd( 4d)     0.00018       3.01925
   368    C   12  dx2y2  Ryd( 3d)     0.00166       2.07668
   369    C   12  dx2y2  Ryd( 4d)     0.00013       3.50566
   370    C   12  dz2    Ryd( 3d)     0.00098       1.79759
   371    C   12  dz2    Ryd( 4d)     0.00015       3.32135
   372    C   12  f(0)   Ryd( 4f)     0.00003       3.60044
   373    C   12  f(C1)  Ryd( 4f)     0.00008       3.89120
   374    C   12  f(S1)  Ryd( 4f)     0.00003       3.68385
   375    C   12  f(C2)  Ryd( 4f)     0.00003       3.61102
   376    C   12  f(S2)  Ryd( 4f)     0.00002       3.70252
   377    C   12  f(C3)  Ryd( 4f)     0.00005       3.79583
   378    C   12  f(S3)  Ryd( 4f)     0.00005       3.94091

   379    C   13  S      Cor( 1S)     1.99924     -10.08637
   380    C   13  S      Val( 2S)     1.07551      -0.30603
   381    C   13  S      Ryd( 3S)     0.00111       1.34097
   382    C   13  S      Ryd( 4S)     0.00015       2.50447
   383    C   13  S      Ryd( 5S)     0.00000      21.14241
   384    C   13  px     Val( 2p)     1.06548      -0.12377
   385    C   13  px     Ryd( 3p)     0.00114       0.92966
   386    C   13  px     Ryd( 4p)     0.00020       1.76566
   387    C   13  py     Val( 2p)     1.22766      -0.12422
   388    C   13  py     Ryd( 3p)     0.00240       1.15192
   389    C   13  py     Ryd( 4p)     0.00029       1.84800
   390    C   13  pz     Val( 2p)     1.11263      -0.11966
   391    C   13  pz     Ryd( 3p)     0.00059       0.78503
   392    C   13  pz     Ryd( 4p)     0.00043       1.93802
   393    C   13  dxy    Ryd( 3d)     0.00205       1.45163
   394    C   13  dxy    Ryd( 4d)     0.00018       3.22504
   395    C   13  dxz    Ryd( 3d)     0.00097       1.35757
   396    C   13  dxz    Ryd( 4d)     0.00020       3.27120
   397    C   13  dyz    Ryd( 3d)     0.00158       1.45260
   398    C   13  dyz    Ryd( 4d)     0.00028       3.27251
   399    C   13  dx2y2  Ryd( 3d)     0.00304       1.49274
   400    C   13  dx2y2  Ryd( 4d)     0.00011       3.37158
   401    C   13  dz2    Ryd( 3d)     0.00210       1.37060
   402    C   13  dz2    Ryd( 4d)     0.00010       3.26666
   403    C   13  f(0)   Ryd( 4f)     0.00004       3.74522
   404    C   13  f(C1)  Ryd( 4f)     0.00008       3.74260
   405    C   13  f(S1)  Ryd( 4f)     0.00003       3.43430
   406    C   13  f(C2)  Ryd( 4f)     0.00007       3.79835
   407    C   13  f(S2)  Ryd( 4f)     0.00004       3.61369
   408    C   13  f(C3)  Ryd( 4f)     0.00014       3.67262
   409    C   13  f(S3)  Ryd( 4f)     0.00017       3.61187

   410    C   14  S      Cor( 1S)     1.99950     -10.23990
   411    C   14  S      Val( 2S)     0.80785      -0.18798
[...]
  1614. BD*(   1) C  32 - C  35          0.01726     0.37296   
  1615. BD*(   1) C  33 - C  34          0.03449     0.47387   
  1616. BD*(   1) C  33 - C  36          0.02421     0.38718   
  1617. BD*(   1) C  34 - N  44          0.02498     0.46383   
  1618. BD*(   2) C  34 - N  44          0.62874    -0.01033  1540(v),1613(v),1552(v)
                                                    180(r),1043(g),1301(g)
                                                    1584(r),235(v),179(r)
  1619. BD*(   1) C  35 - H  65          0.00536     0.40570   
  1620. BD*(   1) C  35 - H  66          0.00941     0.40173   
  1621. BD*(   1) C  35 - H  67          0.00715     0.40198   
  1622. BD*(   1) C  36 - C  37          0.01923     0.34691   
  1623. BD*(   1) C  36 - H  58          0.01504     0.40059   
  1624. BD*(   1) C  36 - H  59          0.01328     0.40088   
  1625. BD*(   1) C  37 - C  38          0.07038     0.33353   
  1626. BD*(   1) C  37 - H  56          0.01090     0.38882   
  1627. BD*(   1) C  37 - H  57          0.01154     0.37943   
  1628. BD*(   1) C  38 - O  39          0.04692     0.53601   
  1629. BD*(   2) C  38 - O  39          0.19823     0.01056  1628(g),1631(v),1627(v)
  1630. BD*(   1) C  38 - O  40          0.07242     0.49182   
  1631. BD*(   1) O  40 - H  55          0.01499     0.35977   
       -------------------------------
              Total Lewis  288.90022  ( 97.3165%)
        Valence non-Lewis    7.35565  (  2.4778%)
        Rydberg non-Lewis    0.61074  (  0.2057%)
       -------------------------------
            Total unit  2  296.86661  (100.0000%)
           Charge unit  2   -0.86661

 Molecular unit  3  (Fe)
   147. CR (   1)Fe  45                  2.00000  -250.22613  1600(r),1555(r),1561(r)
                                                    1594(r),1577(r),1583(r)
                                                    1611(r),1617(r)
   148. CR (   2)Fe  45                  1.99999   -35.10447  1600(r),1555(r),1561(r)
                                                    1594(r),1577(r),1583(r)
                                                    1611(r),1617(r)
   149. CR (   3)Fe  45                  1.99455    -4.55846  179(g),1600(r),1555(r)
                                                    1561(r),176(g),180(g)
                                                    1594(r),1577(r),1583(r)
                                                    1611(r),1617(r),1538(r)
                                                    1593(r),1548(r),1550(r)
                                                    1539(r),1554(r),1543(r)
                                                    1559(r),1615(r),1598(r)
                                                    1581(r),1544(r),1541(r)
                                                    1576(r)
   150. CR (   4)Fe  45                  2.00000   -25.88284   
   151. CR (   5)Fe  45                  1.99854    -2.27431  1600(r),1561(r),1577(r)
                                                    1611(r),1617(r),1583(r)
   152. CR (   6)Fe  45                  2.00000   -25.88207   
   153. CR (   7)Fe  45                  1.99850    -2.27241  1555(r),1594(r),1583(r)
                                                    1617(r),1600(r),1561(r)
   154. CR (   8)Fe  45                  2.00000   -25.88745   
   155. CR (   9)Fe  45                  1.99900    -2.29932  180(g),179(g),1538(r)
                                                    1601(r),1562(r),1584(r)
                                                    1618(r)
   172. LP (   1)Fe  45                  1.96803    -0.23634  1276(r),1250(r),1224(r)
                                                    1302(r),1327(g),1600(r)
                                                    1594(r),1347(g),1561(r)
                                                    1555(r),1583(r),1577(r)
                                                    1611(r),1617(r),1340(g)
                                                    869(r),1050(r),426(r),346(r)
                                                    1275(r),790(r),973(r),971(r)
                                                    607(r),608(r),685(r),1048(r)
                                                    210(r),212(r)
   173. LP (   2)Fe  45                  1.94895    -0.25190  1301(r),1249(r),1584(r)
                                                    1618(r),1223(r),1601(r)
                                                    1562(r),1275(r),1303(r)
                                                    1304(r),209(r),1258(r)
                                                    1310(r),1225(r),1276(r)
                                                    1224(r),341(r),1277(r)
                                                    1226(r),1552(r),1545(r)
                                                    963(r),1041(r),185(r),783(r)
                                                    862(r)
   174. LP (   3)Fe  45                  1.93999    -0.25132  1275(r),1223(r),1601(r)
                                                    1562(r),1584(r),1618(r)
                                                    1249(r),1301(r),163(r)
                                                    1284(r),1226(r),1232(r)
                                                    1302(r),1540(r),185(r)
                                                    1233(r),601(r),1225(r)
                                                    210(r),965(r),679(r)
   175. LP*(   4)Fe  45                  0.58119    -0.09918  1331(g),1225(r),1251(r)
                                                    1303(r),1335(g),1277(r)
                                                    1278(r),1226(r),1304(r)
                                                    1252(r),1223(r),1041(r)
                                                    677(r),599(r),289(r),963(r)
                                                    315(r),781(r),263(r),859(r)
                                                    237(r),1301(r),339(r),417(r)
                                                    1548(r),1550(r),1539(r)
                                                    1543(r),1547(r),1551(r)
                                                    1541(r),1544(r),1600(r)
                                                    1577(r),1611(r),1561(r)
                                                    1555(r)
   176. LP*(   5)Fe  45                  0.29451     0.06911  180(g),179(g),1332(g)
                                                    1328(g),1330(g),1331(g)
                                                    1344(g),1277(r),1538(r)
                                                    1225(r),1251(r),1303(r)
                                                    420(r),1223(r),1617(r)
                                                    1577(r),1555(r),1600(r)
                                                    680(r),1594(r),862(r),861(r)
                                                    1561(r),1611(r),346(r)
                                                    342(r),1583(r),1278(r)
                                                    784(r),966(r),1044(r)
                                                    1536(r),418(r),1304(r)
                                                    1301(r),211(r),973(r),781(r)
                                                    1252(r),1048(r),791(r)
                                                    1226(r),1464(r),859(r)
                                                    1444(r),866(r),1535(r)
                                                    184(r),1041(r),677(r)
                                                    1484(r),340(r),783(r)
                                                    1424(r),599(r),963(r),678(r)
                                                    869(r),688(r),303(r),214(r)
                                                    686(r),216(r),860(r),684(r)
                                                    608(r),787(r),290(r),964(r)
   177. LP*(   6)Fe  45                  0.16598     0.51552  1251(r),1303(r),1555(r)
                                                    1594(r),1276(r),1329(g)
                                                    1224(r),1583(r),209(r)
                                                    1598(r),1301(r),1559(r)
                                                    1225(r),1617(r),1539(r)
                                                    1548(r),1541(r),1600(r)
                                                    1252(r),1547(r),1561(r)
                                                    677(r),178(g),1277(r),599(r)
                                                    1576(r),1304(r),1041(r)
                                                    1610(r),963(r),1593(r)
                                                    289(r),214(r),1223(r)
                                                    1536(r),1554(r),1250(r)
                                                    1302(r),608(r),237(r),420(r)
                                                    426(r),973(r),1050(r)
                                                    1275(r),1553(r),1249(r)
                                                    1546(r),1226(r),1278(r)
                                                    1544(r),869(r),781(r),685(r)
                                                    971(r),212(r),339(r),1551(r)
                                                    607(r),263(r),859(r),862(r)
                                                    264(r),1259(r),1312(r)
                                                    316(r),966(r),1550(r)
                                                    1052(r),860(r),216(r),609(r)
                                                    688(r),686(r),417(r),190(r)
                                                    262(r),213(r),601(r),782(r)
                                                    340(r),1543(r),1018(r)
                                                    625(r),602(r),656(r),294(r)
                                                    184(r),970(r),314(r),1048(r)
                                                    427(r),861(r),1359(r),604(r)
                                                    188(r),1229(r),1549(r)
                                                    1538(r),606(r),838(r),341(r)
                                                    628(r),1265(r),315(r)
                                                    1316(r),680(r),230(r)
   178. LP*(   7)Fe  45                  0.16490     0.52441  1277(r),1225(r),1577(r)
                                                    1223(r),1611(r),1250(r)
                                                    1302(r),1550(r),1561(r)
                                                    1600(r),1278(r),1551(r)
                                                    783(r),1251(r),1543(r)
                                                    183(r),1303(r),1544(r)
                                                    859(r),1583(r),1615(r)
                                                    781(r),1617(r),1226(r)
                                                    1593(r),177(g),1535(r)
                                                    1224(r),1581(r),1554(r)
                                                    208(r),1328(g),184(r)
                                                    1301(r),188(r),417(r),339(r)
                                                    315(r),1539(r),1276(r)
                                                    1548(r),601(r),215(r)
                                                    1610(r),1576(r),1549(r)
                                                    263(r),1542(r),349(r)
                                                    1582(r),869(r),861(r)
                                                    1541(r),1252(r),207(r)
                                                    791(r),426(r),346(r),790(r)
                                                    686(r),220(r),290(r),287(r)
                                                    963(r),181(r),1050(r),599(r)
                                                    1304(r),1547(r),211(r)
                                                    784(r),238(r),1041(r),680(r)
                                                    1228(r),1285(r),838(r)
                                                    1287(r),212(r),182(r),600(r)
                                                    964(r),678(r),342(r),210(r)
                                                    288(r),1048(r),788(r)
                                                    1359(r),341(r),320(r)
                                                    1044(r),1042(r),677(r)
                                                    236(r),807(r),789(r),1288(r)
                                                    1232(r),794(r),429(r),289(r)
                                                    350(r),1605(r),209(r),685(r)
                                                    418(r),185(r),870(r),191(r)
                                                    688(r),1233(r),1236(r)
                                                    217(r),186(r),1534(r)
                                                    1280(r),810(r),245(r)
                                                    1366(r),865(r),347(r)
                                                    1052(r),1256(r)
   179. LP*(   8)Fe  45                  0.12775     0.11049  176(g),180(g),1538(r)
                                                    1332(g),1303(r),1225(r)
                                                    1338(g),1277(r),1251(r)
                                                    1535(r),1584(r),1601(r)
                                                    184(r),211(r),1304(r)
                                                    1562(r),216(r),1618(r)
                                                    1249(r),861(r),862(r),342(r)
                                                    1278(r),420(r),1226(r)
                                                    1536(r),210(r),966(r)
                                                    1044(r),220(r),784(r)
                                                    1041(r),1275(r),1561(r)
                                                    680(r),973(r),1594(r),963(r)
                                                    346(r),214(r),1611(r)
   180. LP*(   9)Fe  45                  0.06182     0.08271   
  1327. RY*(   1)Fe  45                  0.00744     1.38343   
  1328. RY*(   2)Fe  45                  0.00260     0.82529   
  1329. RY*(   3)Fe  45                  0.00157     0.65234   
  1330. RY*(   4)Fe  45                  0.00109     1.00329   
  1331. RY*(   5)Fe  45                  0.00088     1.66691   
  1332. RY*(   6)Fe  45                  0.00046     1.18273   
  1333. RY*(   7)Fe  45                  0.00016     1.73273   
  1334. RY*(   8)Fe  45                  0.00011     1.98682   
  1335. RY*(   9)Fe  45                  0.00012     2.22545   
  1336. RY*(  10)Fe  45                  0.00010     1.90444   
  1337. RY*(  11)Fe  45                  0.00008     1.59458   
  1338. RY*(  12)Fe  45                  0.00007     2.01344   
  1339. RY*(  13)Fe  45                  0.00008     2.03291   
  1340. RY*(  14)Fe  45                  0.00004     2.15374   
  1341. RY*(  15)Fe  45                  0.00004     4.16089   
  1342. RY*(  16)Fe  45                  0.00004     3.81865   
  1343. RY*(  17)Fe  45                  0.00001     3.27242   
  1344. RY*(  18)Fe  45                  0.00002     2.50050   
  1345. RY*(  19)Fe  45                  0.00002     3.55895   
  1346. RY*(  20)Fe  45                  0.00001     3.54032   
  1347. RY*(  21)Fe  45                  0.00001     3.00531   
  1348. RY*(  22)Fe  45                  0.00001     3.01641   
  1349. RY*(  23)Fe  45                  0.00002     4.06889   
  1350. RY*(  24)Fe  45                  0.00000     4.13803   
  1351. RY*(  25)Fe  45                  0.00000     4.09631   
  1352. RY*(  26)Fe  45                  0.00001     4.14613   
  1353. RY*(  27)Fe  45                  0.00001     4.14407   
       -------------------------------
              Total Lewis   23.84755  ( 94.4133%)
        Valence non-Lewis    1.39614  (  5.5274%)
        Rydberg non-Lewis    0.01499  (  0.0594%)
       -------------------------------
            Total unit  3   25.25869  (100.0000%)
           Charge unit  3    0.74131
 1\1\GINC-NODE523\SP\RPBE1PBE\def2TZVP\C35H36Fe1N4O4S1\ZHARTOVSKA\02-Se
 p-2022\0\\# PBE1PBE/def2TZVP empiricaldispersion=GD3BJ int=(grid=ultra
 fine) geom=check guess=read pop=nbo scf=qc\\1cpo_II_S_nbo\\0,1\C,0,39.
 537998,-0.794,5.207\S,0,38.03392141,-1.11851475,6.10189876\C,0,38.4700
 01,1.241,1.71\C,0,38.207001,-3.562,2.326\C,0,34.162998,-2.989,4.879\C,
 0,34.547001,1.849,4.502\C,0,38.791,-0.121,1.704\C,0,39.887001,-0.717,0
 .972\C,0,39.783001,-2.053,1.11\C,0,38.667999,-2.302,1.984\C,0,40.64799
 9,-3.112,0.473\C,0,40.936001,0.054,0.225\C,0,40.355,0.615,-1.069\C,0,4
 1.040001,1.884,-1.489\O,0,40.57,2.973,-1.091\O,0,42.042,1.804,-2.234\C
 ,0,37.137001,-3.843,3.159\C,0,36.700001,-5.174,3.528\C,0,35.554001,-5.
 028,4.232\C,0,35.285999,-3.592,4.314\C,0,37.431999,-6.484,3.19\C,0,34.
 946999,-6.207,4.676\C,0,33.895,-6.333,5.558\C,0,33.944,-1.614,5.037\C,
 0,32.749001,-1.037,5.609\C,0,32.959,0.305,5.696\C,0,34.155998,0.587,4.
 944\C,0,31.51,-1.853,5.944\C,0,32.256001,1.338,6.324\C,0,30.90427054,1
 .16727,6.65202133\C,0,35.657001,2.127,3.714\C,0,35.973,3.417,3.133\C,0
 ,37.07,3.246,2.357\C,0,37.433998,1.843,2.429\C,0,35.178001,4.703,3.333
 \C,0,37.765999,4.308,1.52\C,0,39.055,4.903,2.096\C,0,39.705002,5.928,1
 .183\O,0,40.587002,6.668,1.654\O,0,39.345001,6.,-0.005\N,0,38.126999,-
 1.103,2.413\N,0,36.352001,-2.902,3.784\N,0,34.805,-0.601,4.662\N,0,36.
 566002,1.185,3.28\Fe,0,36.534,-0.853,3.659\H,0,40.37185059,-1.16830862
 ,5.76331189\H,0,39.49800131,-1.27946307,4.25430599\H,0,39.64827803,0.2
 6084517,5.06543736\H,0,38.32544857,-1.5539017,7.30254447\H,0,41.160164
 14,3.6841629,-0.83108922\H,0,40.46661003,-0.1134716,-1.84473986\H,0,39
 .31343461,0.81336418,-0.92514872\H,0,41.75480306,-0.59477481,-0.006418
 3\H,0,41.28475677,0.86052627,0.83556105\H,0,40.0018081,6.04235538,-0.7
 0386369\H,0,38.82812247,5.371808,3.03069014\H,0,39.75091102,4.1090699,
 2.27001966\H,0,37.99815649,3.87772311,0.56823075\H,0,37.07455227,5.109
 32296,1.36289196\H,0,39.07616137,1.88329599,1.10590938\H,0,41.56826555
 ,-3.1930889,1.01284633\H,0,40.13677823,-4.05168406,0.49639202\H,0,40.8
 5252189,-2.84240707,-0.5420813\H,0,38.72687928,-4.39802645,1.90685044\
 H,0,35.73763132,5.53128543,2.95134944\H,0,34.24651783,4.63125509,2.811
 37583\H,0,34.99207458,4.84872996,4.37659673\H,0,33.93799641,2.67832554
 ,4.79565382\H,0,31.7261372,-2.51118127,6.75946436\H,0,30.71275438,-1.1
 9440939,6.21887787\H,0,31.21944579,-2.42748207,5.08933714\H,0,33.39031
 148,-3.64219176,5.22713226\H,0,38.3701161,-6.51120329,3.703903\H,0,36.
 83333509,-7.31632299,3.49616982\H,0,37.60172559,-6.53571325,2.13481347
 \H,0,32.75019209,2.25873467,6.55404961\H,0,30.61588392,1.01788649,7.67
 153971\H,0,30.16058121,1.18629478,5.88295421\H,0,34.03938488,-6.120757
 09,6.59675211\H,0,32.93409926,-6.64304106,5.20381883\H,0,35.34637092,-
 7.11935115,4.28482555\\Version=ES64L-G16RevA.03\State=1-A\HF=-3535.310
 1704\RMSD=2.950e-10\Dipole=-0.0328912,-1.0006091,0.1738408\Quadrupole=
 -3.3882791,3.8733197,-0.4850405,-14.8653042,8.7198164,-4.181094\PG=C01
  [X(C35H36Fe1N4O4S1)]\\@


 Everywhere is walking distance if you have the time.
                                    -- Steven Wright
 Job cpu time:       0 days  1 hours 26 minutes 58.0 seconds.
 Elapsed time:       0 days  0 hours 21 minutes 47.6 seconds.
 File lengths (MBytes):  RWF=    898 Int=      0 D2E=      0 Chk=    174 Scr=      1
 Normal termination of Gaussian 16 at Fri Sep  2 08:00:56 2022.
