 Entering Gaussian System, Link 0=g16
 Input=/net/homes/chemie/zhartovska/work/BioModel/Konrad/1cry/1cry05/1cry05.com
 Output=/net/homes/chemie/zhartovska/work/BioModel/Konrad/1cry/1cry05/1cry05.log
 Initial command:
 /afs/math/software/gaussian/g16.A03/g16/l1.exe "/scratch/zhartovska_gaussian.t9Yat32/Gau-21106.inp" -scrdir="/scratch/zhartovska_gaussian.t9Yat32/"
 Entering Link 1 = /afs/math/software/gaussian/g16.A03/g16/l1.exe PID=     21107.
  
 Copyright (c) 1988,1990,1992,1993,1995,1998,2003,2009,2016,
            Gaussian, Inc.  All Rights Reserved.
  
 This is part of the Gaussian(R) 16 program.  It is based on
 the Gaussian(R) 09 system (copyright 2009, Gaussian, Inc.),
 the Gaussian(R) 03 system (copyright 2003, Gaussian, Inc.),
 the Gaussian(R) 98 system (copyright 1998, Gaussian, Inc.),
 the Gaussian(R) 94 system (copyright 1995, Gaussian, Inc.),
 the Gaussian 92(TM) system (copyright 1992, Gaussian, Inc.),
 the Gaussian 90(TM) system (copyright 1990, Gaussian, Inc.),
 the Gaussian 88(TM) system (copyright 1988, Gaussian, Inc.),
 the Gaussian 86(TM) system (copyright 1986, Carnegie Mellon
 University), and the Gaussian 82(TM) system (copyright 1983,
 Carnegie Mellon University). Gaussian is a federally registered
 trademark of Gaussian, Inc.
  
 This software contains proprietary and confidential information,
 including trade secrets, belonging to Gaussian, Inc.
  
 This software is provided under written license and may be
 used, copied, transmitted, or stored only in accord with that
 written license.
  
 The following legend is applicable only to US Government
 contracts under FAR:
  
                    RESTRICTED RIGHTS LEGEND
  
 Use, reproduction and disclosure by the US Government is
 subject to restrictions as set forth in subparagraphs (a)
 and (c) of the Commercial Computer Software - Restricted
 Rights clause in FAR 52.227-19.
  
 Gaussian, Inc.
 340 Quinnipiac St., Bldg. 40, Wallingford CT 06492
  
  
 ---------------------------------------------------------------
 Warning -- This program may not be used in any manner that
 competes with the business of Gaussian, Inc. or will provide
 assistance to any competitor of Gaussian, Inc.  The licensee
 of this program is prohibited from giving any competitor of
 Gaussian, Inc. access to this program.  By using this program,
 the user acknowledges that Gaussian, Inc. is engaged in the
 business of creating and licensing software in the field of
 computational chemistry and represents and warrants to the
 licensee that it is not a competitor of Gaussian, Inc. and that
 it will not use this program in any manner prohibited above.
 ---------------------------------------------------------------
  

 Cite this work as:
 Gaussian 16, Revision A.03,
 M. J. Frisch, G. W. Trucks, H. B. Schlegel, G. E. Scuseria, 
 M. A. Robb, J. R. Cheeseman, G. Scalmani, V. Barone, 
 G. A. Petersson, H. Nakatsuji, X. Li, M. Caricato, A. V. Marenich, 
 J. Bloino, B. G. Janesko, R. Gomperts, B. Mennucci, H. P. Hratchian, 
 J. V. Ortiz, A. F. Izmaylov, J. L. Sonnenberg, D. Williams-Young, 
 F. Ding, F. Lipparini, F. Egidi, J. Goings, B. Peng, A. Petrone, 
 T. Henderson, D. Ranasinghe, V. G. Zakrzewski, J. Gao, N. Rega, 
 G. Zheng, W. Liang, M. Hada, M. Ehara, K. Toyota, R. Fukuda, 
 J. Hasegawa, M. Ishida, T. Nakajima, Y. Honda, O. Kitao, H. Nakai, 
 T. Vreven, K. Throssell, J. A. Montgomery, Jr., J. E. Peralta, 
 F. Ogliaro, M. J. Bearpark, J. J. Heyd, E. N. Brothers, K. N. Kudin, 
 V. N. Staroverov, T. A. Keith, R. Kobayashi, J. Normand, 
 K. Raghavachari, A. P. Rendell, J. C. Burant, S. S. Iyengar, 
 J. Tomasi, M. Cossi, J. M. Millam, M. Klene, C. Adamo, R. Cammi, 
 J. W. Ochterski, R. L. Martin, K. Morokuma, O. Farkas, 
 J. B. Foresman, and D. J. Fox, Gaussian, Inc., Wallingford CT, 2016.
 
 ******************************************
 Gaussian 16:  ES64L-G16RevA.03 25-Dec-2016
                 7-Feb-2023 
 ******************************************
 %nprocs=12
 Will use up to   12 processors via shared memory.
 %mem=16GB
 %oldchk=1cry_II_S.chk
 %chk=1cry_II_Q.chk
 Copying data from "1cry_II_S.chk" to current chk file "1cry_II_Q.chk"
 IOpt=  2 FromEx=T IUOpen= 4 IOptOp= 5 NList=   0 IFRang= 0 IUIn= 4 IUOut= 2.
 ----------------------------------------------------------------------
 # PBE1PBE/def2TZVP empiricaldispersion=GD3BJ scf=maxcycle=999 geom=che
 ck pop=nbo
 ----------------------------------------------------------------------
 1/29=2,38=1,172=1/1;
 2/12=2,40=1/2;
 3/5=44,7=101,11=2,14=-4,25=1,30=1,74=-13,124=41/1,2,3;
 4//1;
 5/5=2,7=999,38=5/2;
 6/7=2,8=2,9=2,10=2,28=1,40=1/1,7;
 99/5=1,9=1/99;
 ---------
 1cry_II_Q
 ---------
 Structure from the checkpoint file:  "1cry_II_Q.chk"
 Charge =  0 Multiplicity = 5
 Z-Matrix found in chk file.
 C,0,18.559999,-18.226,18.774
 C,0,19.341999,-18.736,17.632
 N,0,20.49,-19.462,17.771
 C,0,19.184,-18.620001,16.302999
 C,0,20.985001,-19.778,16.599001
 N,0,20.198,-19.274,15.685
 C,0,21.131001,-21.854,10.425
 C,0,20.629999,-20.459,10.334
 S,0,21.375999,-19.479,11.694
 C,0,21.546,-17.886999,10.877
 Fe,0,20.73,-19.146,13.891
 C,0,23.254,-21.370001,14.31
 C,0,22.868,-16.591,14.587
 C,0,18.344,-16.879,12.904
 C,0,18.507,-21.698999,13.581
 N,0,22.68,-18.997999,14.377
 C,0,23.587,-20.037001,14.464
 C,0,24.902,-19.514999,14.717
 C,0,24.801001,-18.184999,14.799
 C,0,23.416,-17.848,14.585
 C,0,25.927,-17.158001,15.083
 C,0,26.160999,-20.403999,14.944
 C,0,26.521,-20.389999,16.452
 C,0,27.712,-21.169001,16.908001
 O,0,28.504,-21.518999,15.987
 O,0,27.815001,-21.408001,18.153
 N,0,20.646999,-17.143,13.662
 C,0,21.584999,-16.266001,14.194
 C,0,21.02,-14.941,14.258
 C,0,19.784,-15.015,13.77
 C,0,19.527,-16.382999,13.392
 C,0,21.808001,-13.723,14.79
 C,0,18.775999,-13.826,13.614
 C,0,18.98,-13.086,12.477
 N,0,18.805,-19.26,13.375
 C,0,17.982,-18.209999,13.031
 C,0,16.663,-18.742001,12.746
 C,0,16.715,-20.063999,12.899
 C,0,18.046,-20.417999,13.314
 C,0,15.456,-17.882,12.29
 C,0,15.536,-21.084999,12.724
 C,0,15.273,-21.466,11.443
 N,0,20.843,-21.16,13.98
 C,0,19.826,-22.079,13.735
 C,0,20.391001,-23.407,13.668
 C,0,21.707001,-23.312,13.875
 C,0,22.002001,-21.91,14.065
 C,0,19.573,-24.687,13.407
 C,0,22.796,-24.406,13.931
 C,0,23.674999,-24.639999,12.707
 C,0,24.436001,-25.938999,12.584
 O,0,24.766001,-26.277,11.42
 O,0,24.688999,-26.58,13.638
 H,0,22.44946813,-17.87491319,10.30385144
 H,0,20.7099979,-17.72788642,10.22839868
 H,0,21.57973302,-17.11050307,11.61240204
 H,0,22.0737606,-21.86209275,10.93100282
 H,0,20.42889771,-22.45032767,10.96937513
 H,0,21.25132915,-22.25471195,9.44018983
 H,0,20.90976194,-20.0371363,9.39131038
 H,0,19.56422737,-20.45269331,10.42882116
 H,0,19.11168485,-17.45325494,19.26736374
 H,0,17.63013974,-17.83098518,18.42154426
 H,0,18.3709123,-19.02380764,19.46149486
 H,0,18.3890174,-18.09762548,15.81307403
 H,0,20.89769326,-19.71783949,18.6475457
 H,0,21.87399348,-20.34662265,16.42219416
 H,0,29.45271473,-21.4668627,16.12419389
 H,0,26.67424561,-19.37021217,16.73739552
 H,0,25.67133094,-20.7558672,16.98968295
 H,0,26.98079984,-20.01644378,14.37599688
 H,0,25.95247384,-21.40677587,14.63439412
 H,0,25.69428034,-26.34524809,11.1849688
 H,0,23.04962705,-24.55299626,11.8431479
 H,0,24.3909345,-23.84561151,12.67115492
 H,0,23.4435334,-24.1713433,14.74986307
 H,0,22.30861075,-25.33144513,14.15661699
 H,0,24.06044473,-22.06871691,14.38964284
 H,0,26.78655468,-17.39888989,14.49305229
 H,0,25.58556565,-16.17566851,14.83131475
 H,0,26.18606016,-17.19059601,16.12065379
 H,0,20.12417343,-25.53828786,13.74819911
 H,0,18.64324851,-24.62966176,13.93347365
 H,0,19.38371097,-24.78164326,12.35813761
 H,0,17.76876568,-22.46756657,13.67698947
 H,0,15.80370207,-22.36876715,11.22330297
 H,0,14.2222939,-21.63324196,11.32921594
 H,0,15.58640256,-20.69528887,10.77018265
 H,0,14.97572877,-21.45725028,13.55612087
 H,0,15.72681567,-17.31965487,11.4209046
 H,0,14.62992274,-18.5212937,12.05805189
 H,0,15.17836921,-17.2116063,13.07637995
 H,0,17.67403799,-16.21029812,12.40511253
 H,0,18.42799451,-12.1717357,12.54265616
 H,0,20.02245875,-12.86678921,12.37637006
 H,0,18.64866058,-13.64230027,11.62515248
 H,0,18.00464881,-13.61219561,14.32407504
 H,0,22.74139627,-13.64825325,14.27222959
 H,0,21.23839357,-12.83165514,14.62890463
 H,0,21.98989492,-13.84564041,15.83726975
 H,0,23.49136663,-15.78917473,14.92373474
 Recover connectivity data from disk.
 Stoichiometry    C41H48FeN6O4S(5)
 Framework group  C1[X(C41H48FeN6O4S)]
 Deg. of freedom   297
 Full point group                 C1      NOp   1
 Largest Abelian subgroup         C1      NOp   1
 Largest concise Abelian subgroup C1      NOp   1
                         Standard orientation:                         
 ---------------------------------------------------------------------
 Center     Atomic      Atomic             Coordinates (Angstroms)
 Number     Number       Type             X           Y           Z
 ---------------------------------------------------------------------
      1          6           0        2.508484   -1.500272    4.973537
      2          6           0        1.730312   -1.104455    3.784603
      3          7           0        0.376573   -1.253928    3.687894
      4          6           0        2.089705   -0.580736    2.600872
      5          6           0       -0.055828   -0.831832    2.524567
      6          7           0        0.978015   -0.412111    1.843546
      7          6           0       -0.716279    3.046624   -2.668771
      8          6           0        0.562144    2.328581   -2.904054
      9         16           0        0.445406    0.661489   -2.146629
     10          6           0        1.427062   -0.284806   -3.317838
     11         26           0        0.876349   -0.093247   -0.001944
     12          6           0       -2.512300   -0.003416    0.034222
     13          6           0        0.779031   -3.425162   -0.689223
     14          6           0        4.257602   -0.067235   -0.612602
     15          6           0        0.991796    3.132095    1.065518
     16          7           0       -0.578127   -1.464092   -0.258625
     17          6           0       -1.940039   -1.229948   -0.247969
     18          6           0       -2.643792   -2.436396   -0.586990
     19          6           0       -1.733325   -3.394129   -0.786043
     20          6           0       -0.436158   -2.798140   -0.586676
     21          6           0       -1.976408   -4.881460   -1.149380
     22          6           0       -4.196557   -2.561188   -0.603618
     23          6           0       -4.649887   -3.362070    0.644156
     24          6           0       -6.109472   -3.620695    0.833856
     25          8           0       -6.821269   -3.435270   -0.194234
     26          8           0       -6.494473   -3.990472    1.988322
     27          7           0        2.238628   -1.434957   -0.646420
     28          6           0        2.013015   -2.805946   -0.684939
     29          6           0        3.276597   -3.498166   -0.740963
     30          6           0        4.233452   -2.573120   -0.746795
     31          6           0        3.608856   -1.274430   -0.686484
     32          6           0        3.381730   -5.038307   -0.807339
     33          6           0        5.776154   -2.835314   -0.820620
     34          6           0        6.231248   -3.046066   -2.097514
     35          7           0        2.337045    1.250590    0.211001
     36          6           0        3.673797    1.063261   -0.064988
     37          6           0        4.378238    2.291862    0.248563
     38          6           0        3.481013    3.178200    0.676564
     39          6           0        2.189273    2.545370    0.682670
     40          6           0        5.901408    2.499531    0.045551
     41          6           0        3.754788    4.647349    1.155890
     42          6           0        3.873093    5.576407    0.166877
     43          7           0       -0.498389    1.295150    0.507306
     44          6           0       -0.274824    2.627649    0.843967
     45          6           0       -1.539937    3.323260    0.897952
     46          6           0       -2.509574    2.449285    0.615634
     47          6           0       -1.869029    1.178571    0.363212
     48          6           0       -1.695203    4.819050    1.235815
     49          6           0       -4.041387    2.636259    0.548715
     50          6           0       -4.708314    2.807495   -0.811968
     51          6           0       -6.097624    3.396124   -0.882576
     52          8           0       -6.419073    3.921893   -1.977235
     53          8           0       -6.828310    3.315588    0.139882
     54          1           0        0.816620   -0.564402   -4.150957
     55          1           0        2.246535    0.311841   -3.660439
     56          1           0        1.802396   -1.165174   -2.839322
     57          1           0       -1.503691    2.336044   -2.527491
     58          1           0       -0.626483    3.657886   -1.795161
     59          1           0       -0.939800    3.663308   -3.514135
     60          1           0        0.733478    2.234478   -3.956046
     61          1           0        1.367574    2.871787   -2.455600
     62          1           0        2.516320   -2.567080    5.055750
     63          1           0        3.512377   -1.142521    4.878078
     64          1           0        2.061239   -1.078338    5.849233
     65          1           0        3.088560   -0.336922    2.304656
     66          1           0       -0.205782   -1.633703    4.406666
     67          1           0       -1.072842   -0.831009    2.192030
     68          1           0       -7.529161   -4.048535   -0.404933
     69          1           0       -4.155473   -4.310562    0.615565
     70          1           0       -4.300484   -2.837135    1.508598
     71          1           0       -4.505643   -3.073800   -1.490520
     72          1           0       -4.634992   -1.585373   -0.582169
     73          1           0       -7.141445    3.554986   -2.492170
     74          1           0       -4.068531    3.426316   -1.405801
     75          1           0       -4.746273    1.842618   -1.272914
     76          1           0       -4.488463    1.785718    1.019463
     77          1           0       -4.284543    3.497706    1.134960
     78          1           0       -3.580733    0.037849   -0.006381
     79          1           0       -2.711711   -4.943759   -1.924202
     80          1           0       -1.061507   -5.319568   -1.489848
     81          1           0       -2.323784   -5.407629   -0.284871
     82          1           0       -2.698153    5.010159    1.555922
     83          1           0       -1.014868    5.080224    2.019289
     84          1           0       -1.480376    5.405164    0.366781
     85          1           0        1.055668    4.066524    1.582879
     86          1           0        2.922857    6.037254   -0.005089
     87          1           0        4.582888    6.321361    0.460366
     88          1           0        4.206469    5.100435   -0.731572
     89          1           0        3.842708    4.902340    2.191337
     90          1           0        6.159523    2.277792   -0.968899
     91          1           0        6.155082    3.515778    0.264161
     92          1           0        6.440685    1.848323    0.701302
     93          1           0        5.254989    0.003540   -0.993537
     94          1           0        7.224186   -3.443131   -2.061279
     95          1           0        5.587371   -3.740519   -2.595568
     96          1           0        6.237144   -2.118927   -2.631628
     97          1           0        6.412037   -2.848696    0.039830
     98          1           0        2.781312   -5.402323   -1.614736
     99          1           0        4.401758   -5.319652   -0.966364
    100          1           0        3.034924   -5.459477    0.113118
    101          1           0        0.770093   -4.491191   -0.780891
 ---------------------------------------------------------------------
 Rotational constants (GHZ):           0.0645089           0.0441764           0.0330312
 Standard basis: def2TZVP (5D, 7F)
 There are  2218 symmetry adapted cartesian basis functions of A   symmetry.
 There are  1951 symmetry adapted basis functions of A   symmetry.
  1951 basis functions,  3156 primitive gaussians,  2218 cartesian basis functions
   207 alpha electrons      203 beta electrons
       nuclear repulsion energy      8949.8523112380 Hartrees.
 NAtoms=  101 NActive=  101 NUniq=  101 SFac= 1.00D+00 NAtFMM=   60 NAOKFM=T Big=T
 Integral buffers will be    131072 words long.
 Raffenetti 2 integral format.
 Two-electron integral symmetry is turned on.
 Nuclear repulsion after empirical dispersion term =     8949.7025978176 Hartrees.
 One-electron integrals computed using PRISM.
   1 Symmetry operations used in ECPInt.
 ECPInt:  NShTT=  305371 NPrTT=  941867 LenC2=  223075 LenP2D=  445226.
 LDataN:  DoStor=T MaxTD1= 6 Len=  172
 NBasis=  1951 RedAO= T EigKep=  3.01D-06  NBF=  1951
 NBsUse=  1951 1.00D-06 EigRej= -1.00D+00 NBFU=  1951
 ExpMin= 4.20D-02 ExpMax= 3.01D+05 ExpMxC= 2.91D+03 IAcc=3 IRadAn=         5 AccDes= 0.00D+00
 Harris functional with IExCor= 1009 and IRadAn=       5 diagonalized for initial guess.
 HarFok:  IExCor= 1009 AccDes= 0.00D+00 IRadAn=         5 IDoV= 1 UseB2=F ITyADJ=14
 ICtDFT=  3500011 ScaDFX=  1.000000  1.000000  1.000000  1.000000
 FoFCou: FMM=F IPFlag=           0 FMFlag=      100000 FMFlg1=        2001
         NFxFlg=           0 DoJE=T BraDBF=F KetDBF=T FulRan=T
         wScrn=  0.000000 ICntrl=       500 IOpCl=  0 I1Cent=   200000004 NGrid=           0
         NMat0=    1 NMatS0=      1 NMatT0=    0 NMatD0=    1 NMtDS0=    0 NMtDT0=    0
 Petite list used in FoFCou.
 Initial guess <Sx>= 0.0000 <Sy>= 0.0000 <Sz>= 2.0000 <S**2>= 6.0000 S= 2.0000
 Requested convergence on RMS density matrix=1.00D-08 within 999 cycles.
 Requested convergence on MAX density matrix=1.00D-06.
 Requested convergence on             energy=1.00D-06.
 No special actions if energy rises.
 EnCoef did   100 forward-backward iterations
 EnCoef did     7 forward-backward iterations
 EnCoef did     3 forward-backward iterations
 EnCoef did     3 forward-backward iterations
 EnCoef did     2 forward-backward iterations
 Restarting incremental Fock formation.
 Restarting incremental Fock formation.
 SCF Done:  E(UPBE1PBE) =  -3880.50556868     A.U. after   56 cycles
            NFock= 56  Conv=0.21D-08     -V/T= 2.0028
 <Sx>= 0.0000 <Sy>= 0.0000 <Sz>= 2.0000 <S**2>= 6.0671 S= 2.0134
 <L.S>= 0.000000000000E+00
 Annihilation of the first spin contaminant:
 S**2 before annihilation     6.0671,   after     6.0013
 Hyperfine terms turned off by default for NAtoms > 100.

 **********************************************************************

            Population analysis using the SCF density.

 **********************************************************************

 Orbital symmetries:
 Alpha Orbitals:
       Occupied  (A) (A) (A) (A) (A) (A) (A) (A) (A) (A) (A) (A)
                 (A) (A) (A) (A) (A) (A) (A) (A) (A) (A) (A) (A)
                 (A) (A) (A) (A) (A) (A) (A) (A) (A) (A) (A) (A)
                 (A) (A) (A) (A) (A) (A) (A) (A) (A) (A) (A) (A)
                 (A) (A) (A) (A) (A) (A) (A) (A) (A) (A) (A) (A)
                 (A) (A) (A) (A) (A) (A) (A) (A) (A) (A) (A) (A)
                 (A) (A) (A) (A) (A) (A) (A) (A) (A) (A) (A) (A)
                 (A) (A) (A) (A) (A) (A) (A) (A) (A) (A) (A) (A)
                 (A) (A) (A) (A) (A) (A) (A) (A) (A) (A) (A) (A)
                 (A) (A) (A) (A) (A) (A) (A) (A) (A) (A) (A) (A)
                 (A) (A) (A) (A) (A) (A) (A) (A) (A) (A) (A) (A)
                 (A) (A) (A) (A) (A) (A) (A) (A) (A) (A) (A) (A)
                 (A) (A) (A) (A) (A) (A) (A) (A) (A) (A) (A) (A)
                 (A) (A) (A) (A) (A) (A) (A) (A) (A) (A) (A) (A)
                 (A) (A) (A) (A) (A) (A) (A) (A) (A) (A) (A) (A)
                 (A) (A) (A) (A) (A) (A) (A) (A) (A) (A) (A) (A)
                 (A) (A) (A) (A) (A) (A) (A) (A) (A) (A) (A) (A)
                 (A) (A) (A)
       Virtual   (A) (A) (A) (A) (A) (A) (A) (A) (A) (A) (A) (A)
                 (A) (A) (A) (A) (A) (A) (A) (A) (A) (A) (A) (A)
                 (A) (A) (A) (A) (A) (A) (A) (A) (A) (A) (A) (A)
                 (A) (A) (A) (A) (A) (A) (A) (A) (A) (A) (A) (A)
                 (A) (A) (A) (A) (A) (A) (A) (A) (A) (A) (A) (A)
                 (A) (A) (A) (A) (A) (A) (A) (A) (A) (A) (A) (A)
                 (A) (A) (A) (A) (A) (A) (A) (A) (A) (A) (A) (A)
                 (A) (A) (A) (A) (A) (A) (A) (A) (A) (A) (A) (A)
                 (A) (A) (A) (A) (A) (A) (A) (A) (A) (A) (A) (A)
                 (A) (A) (A) (A) (A) (A) (A) (A) (A) (A) (A) (A)
                 (A) (A) (A) (A) (A) (A) (A) (A) (A) (A) (A) (A)
                 (A) (A) (A) (A) (A) (A) (A) (A) (A) (A) (A) (A)
                 (A) (A) (A) (A) (A) (A) (A) (A) (A) (A) (A) (A)
                 (A) (A) (A) (A) (A) (A) (A) (A) (A) (A) (A) (A)
                 (A) (A) (A) (A) (A) (A) (A) (A) (A) (A) (A) (A)
                 (A) (A) (A) (A) (A) (A) (A) (A) (A) (A) (A) (A)
                 (A) (A) (A) (A) (A) (A) (A) (A) (A) (A) (A) (A)
                 (A) (A) (A) (A) (A) (A) (A) (A) (A) (A) (A) (A)
                 (A) (A) (A) (A) (A) (A) (A) (A) (A) (A) (A) (A)
                 (A) (A) (A) (A) (A) (A) (A) (A) (A) (A) (A) (A)
                 (A) (A) (A) (A) (A) (A) (A) (A) (A) (A) (A) (A)
                 (A) (A) (A) (A) (A) (A) (A) (A) (A) (A) (A) (A)
                 (A) (A) (A) (A) (A) (A) (A) (A) (A) (A) (A) (A)
                 (A) (A) (A) (A) (A) (A) (A) (A) (A) (A) (A) (A)
                 (A) (A) (A) (A) (A) (A) (A) (A) (A) (A) (A) (A)
                 (A) (A) (A) (A) (A) (A) (A) (A) (A) (A) (A) (A)
                 (A) (A) (A) (A) (A) (A) (A) (A) (A) (A) (A) (A)
                 (A) (A) (A) (A) (A) (A) (A) (A) (A) (A) (A) (A)
                 (A) (A) (A) (A) (A) (A) (A) (A) (A) (A) (A) (A)
                 (A) (A) (A) (A) (A) (A) (A) (A) (A) (A) (A) (A)
                 (A) (A) (A) (A) (A) (A) (A) (A) (A) (A) (A) (A)
                 (A) (A) (A) (A) (A) (A) (A) (A) (A) (A) (A) (A)
                 (A) (A) (A) (A) (A) (A) (A) (A) (A) (A) (A) (A)
                 (A) (A) (A) (A) (A) (A) (A) (A) (A) (A) (A) (A)
                 (A) (A) (A) (A) (A) (A) (A) (A) (A) (A) (A) (A)
                 (A) (A) (A) (A) (A) (A) (A) (A) (A) (A) (A) (A)
                 (A) (A) (A) (A) (A) (A) (A) (A) (A) (A) (A) (A)
                 (A) (A) (A) (A) (A) (A) (A) (A) (A) (A) (A) (A)
                 (A) (A) (A) (A) (A) (A) (A) (A) (A) (A) (A) (A)
                 (A) (A) (A) (A) (A) (A) (A) (A) (A) (A) (A) (A)
                 (A) (A) (A) (A) (A) (A) (A) (A) (A) (A) (A) (A)
                 (A) (A) (A) (A) (A) (A) (A) (A) (A) (A) (A) (A)
                 (A) (A) (A) (A) (A) (A) (A) (A) (A) (A) (A) (A)
                 (A) (A) (A) (A) (A) (A) (A) (A) (A) (A) (A) (A)
                 (A) (A) (A) (A) (A) (A) (A) (A) (A) (A) (A) (A)
                 (A) (A) (A) (A) (A) (A) (A) (A) (A) (A) (A) (A)
                 (A) (A) (A) (A) (A) (A) (A) (A) (A) (A) (A) (A)
                 (A) (A) (A) (A) (A) (A) (A) (A) (A) (A) (A) (A)
                 (A) (A) (A) (A) (A) (A) (A) (A) (A) (A) (A) (A)
                 (A) (A) (A) (A) (A) (A) (A) (A) (A) (A) (A) (A)
                 (A) (A) (A) (A) (A) (A) (A) (A) (A) (A) (A) (A)
                 (A) (A) (A) (A) (A) (A) (A) (A) (A) (A) (A) (A)
                 (A) (A) (A) (A) (A) (A) (A) (A) (A) (A) (A) (A)
                 (A) (A) (A) (A) (A) (A) (A) (A) (A) (A) (A) (A)
                 (A) (A) (A) (A) (A) (A) (A) (A) (A) (A) (A) (A)
                 (A) (A) (A) (A) (A) (A) (A) (A) (A) (A) (A) (A)
                 (A) (A) (A) (A) (A) (A) (A) (A) (A) (A) (A) (A)
                 (A) (A) (A) (A) (A) (A) (A) (A) (A) (A) (A) (A)
                 (A) (A) (A) (A) (A) (A) (A) (A) (A) (A) (A) (A)
                 (A) (A) (A) (A) (A) (A) (A) (A) (A) (A) (A) (A)
                 (A) (A) (A) (A) (A) (A) (A) (A) (A) (A) (A) (A)
                 (A) (A) (A) (A) (A) (A) (A) (A) (A) (A) (A) (A)
                 (A) (A) (A) (A) (A) (A) (A) (A) (A) (A) (A) (A)
                 (A) (A) (A) (A) (A) (A) (A) (A) (A) (A) (A) (A)
                 (A) (A) (A) (A) (A) (A) (A) (A) (A) (A) (A) (A)
                 (A) (A) (A) (A) (A) (A) (A) (A) (A) (A) (A) (A)
                 (A) (A) (A) (A) (A) (A) (A) (A) (A) (A) (A) (A)
                 (A) (A) (A) (A) (A) (A) (A) (A) (A) (A) (A) (A)
                 (A) (A) (A) (A) (A) (A) (A) (A) (A) (A) (A) (A)
                 (A) (A) (A) (A) (A) (A) (A) (A) (A) (A) (A) (A)
                 (A) (A) (A) (A) (A) (A) (A) (A) (A) (A) (A) (A)
                 (A) (A) (A) (A) (A) (A) (A) (A) (A) (A) (A) (A)
                 (A) (A) (A) (A) (A) (A) (A) (A) (A) (A) (A) (A)
                 (A) (A) (A) (A) (A) (A) (A) (A) (A) (A) (A) (A)
                 (A) (A) (A) (A) (A) (A) (A) (A) (A) (A) (A) (A)
                 (A) (A) (A) (A) (A) (A) (A) (A) (A) (A) (A) (A)
                 (A) (A) (A) (A) (A) (A) (A) (A) (A) (A) (A) (A)
                 (A) (A) (A) (A) (A) (A) (A) (A) (A) (A) (A) (A)
                 (A) (A) (A) (A) (A) (A) (A) (A) (A) (A) (A) (A)
                 (A) (A) (A) (A) (A) (A) (A) (A) (A) (A) (A) (A)
                 (A) (A) (A) (A) (A) (A) (A) (A) (A) (A) (A) (A)
                 (A) (A) (A) (A) (A) (A) (A) (A) (A) (A) (A) (A)
                 (A) (A) (A) (A) (A) (A) (A) (A) (A) (A) (A) (A)
                 (A) (A) (A) (A) (A) (A) (A) (A) (A) (A) (A) (A)
                 (A) (A) (A) (A) (A) (A) (A) (A) (A) (A) (A) (A)
                 (A) (A) (A) (A) (A) (A) (A) (A) (A) (A) (A) (A)
                 (A) (A) (A) (A) (A) (A) (A) (A) (A) (A) (A) (A)
                 (A) (A) (A) (A) (A) (A) (A) (A) (A) (A) (A) (A)
                 (A) (A) (A) (A) (A) (A) (A) (A) (A) (A) (A) (A)
                 (A) (A) (A) (A) (A) (A) (A) (A) (A) (A) (A) (A)
                 (A) (A) (A) (A) (A) (A) (A) (A) (A) (A) (A) (A)
                 (A) (A) (A) (A) (A) (A) (A) (A) (A) (A) (A) (A)
                 (A) (A) (A) (A) (A) (A) (A) (A) (A) (A) (A) (A)
                 (A) (A) (A) (A) (A) (A) (A) (A) (A) (A) (A) (A)
                 (A) (A) (A) (A) (A) (A) (A) (A) (A) (A) (A) (A)
                 (A) (A) (A) (A) (A) (A) (A) (A) (A) (A) (A) (A)
                 (A) (A) (A) (A) (A) (A) (A) (A) (A) (A) (A) (A)
                 (A) (A) (A) (A) (A) (A) (A) (A) (A) (A) (A) (A)
                 (A) (A) (A) (A) (A) (A) (A) (A) (A) (A) (A) (A)
                 (A) (A) (A) (A) (A) (A) (A) (A) (A) (A) (A) (A)
                 (A) (A) (A) (A) (A) (A) (A) (A) (A) (A) (A) (A)
                 (A) (A) (A) (A) (A) (A) (A) (A) (A) (A) (A) (A)
                 (A) (A) (A) (A) (A) (A) (A) (A) (A) (A) (A) (A)
                 (A) (A) (A) (A) (A) (A) (A) (A) (A) (A) (A) (A)
                 (A) (A) (A) (A) (A) (A) (A) (A) (A) (A) (A) (A)
                 (A) (A) (A) (A) (A) (A) (A) (A) (A) (A) (A) (A)
                 (A) (A) (A) (A) (A) (A) (A) (A) (A) (A) (A) (A)
                 (A) (A) (A) (A) (A) (A) (A) (A) (A) (A) (A) (A)
                 (A) (A) (A) (A) (A) (A) (A) (A) (A) (A) (A) (A)
                 (A) (A) (A) (A) (A) (A) (A) (A) (A) (A) (A) (A)
                 (A) (A) (A) (A) (A) (A) (A) (A) (A) (A) (A) (A)
                 (A) (A) (A) (A) (A) (A) (A) (A) (A) (A) (A) (A)
                 (A) (A) (A) (A) (A) (A) (A) (A) (A) (A) (A) (A)
                 (A) (A) (A) (A) (A) (A) (A) (A) (A) (A) (A) (A)
                 (A) (A) (A) (A) (A) (A) (A) (A) (A) (A) (A) (A)
                 (A) (A) (A) (A) (A) (A) (A) (A) (A) (A) (A) (A)
                 (A) (A) (A) (A) (A) (A) (A) (A) (A) (A) (A) (A)
                 (A) (A) (A) (A) (A) (A) (A) (A) (A) (A) (A) (A)
                 (A) (A) (A) (A) (A) (A) (A) (A) (A) (A) (A) (A)
                 (A) (A) (A) (A) (A) (A) (A) (A) (A) (A) (A) (A)
                 (A) (A) (A) (A) (A) (A) (A) (A) (A) (A) (A) (A)
                 (A) (A) (A) (A) (A) (A) (A) (A) (A) (A) (A) (A)
                 (A) (A) (A) (A) (A) (A) (A) (A) (A) (A) (A) (A)
                 (A) (A) (A) (A) (A) (A) (A) (A) (A) (A) (A) (A)
                 (A) (A) (A) (A) (A) (A) (A) (A) (A) (A) (A) (A)
                 (A) (A) (A) (A) (A) (A) (A) (A) (A) (A) (A) (A)
                 (A) (A) (A) (A) (A) (A) (A) (A) (A) (A) (A) (A)
                 (A) (A) (A) (A) (A) (A) (A) (A) (A) (A) (A) (A)
                 (A) (A) (A) (A) (A) (A) (A) (A) (A) (A) (A) (A)
                 (A) (A) (A) (A) (A) (A) (A) (A) (A) (A) (A) (A)
                 (A) (A) (A) (A) (A) (A) (A) (A) (A) (A) (A) (A)
                 (A) (A) (A) (A) (A) (A) (A) (A) (A) (A) (A) (A)
                 (A) (A) (A) (A) (A) (A) (A) (A) (A) (A) (A) (A)
                 (A) (A) (A) (A) (A) (A) (A) (A) (A) (A) (A) (A)
                 (A) (A) (A) (A) (A) (A) (A) (A) (A) (A) (A) (A)
                 (A) (A) (A) (A) (A) (A) (A) (A) (A) (A) (A) (A)
                 (A) (A) (A) (A) (A) (A) (A) (A) (A) (A) (A) (A)
                 (A) (A) (A) (A) (A) (A) (A) (A) (A) (A) (A) (A)
                 (A) (A) (A) (A) (A) (A) (A) (A) (A) (A) (A) (A)
                 (A) (A) (A) (A) (A) (A) (A) (A) (A) (A) (A) (A)
                 (A) (A) (A) (A) (A) (A) (A) (A) (A) (A) (A) (A)
                 (A) (A) (A) (A) (A) (A) (A) (A) (A) (A) (A) (A)
                 (A) (A) (A) (A) (A) (A) (A) (A) (A) (A) (A) (A)
                 (A) (A) (A) (A) (A) (A) (A) (A) (A) (A) (A) (A)
                 (A) (A) (A) (A) (A) (A) (A) (A) (A) (A) (A) (A)
                 (A) (A) (A) (A)
 Beta  Orbitals:
       Occupied  (A) (A) (A) (A) (A) (A) (A) (A) (A) (A) (A) (A)
                 (A) (A) (A) (A) (A) (A) (A) (A) (A) (A) (A) (A)
                 (A) (A) (A) (A) (A) (A) (A) (A) (A) (A) (A) (A)
                 (A) (A) (A) (A) (A) (A) (A) (A) (A) (A) (A) (A)
                 (A) (A) (A) (A) (A) (A) (A) (A) (A) (A) (A) (A)
                 (A) (A) (A) (A) (A) (A) (A) (A) (A) (A) (A) (A)
                 (A) (A) (A) (A) (A) (A) (A) (A) (A) (A) (A) (A)
                 (A) (A) (A) (A) (A) (A) (A) (A) (A) (A) (A) (A)
                 (A) (A) (A) (A) (A) (A) (A) (A) (A) (A) (A) (A)
                 (A) (A) (A) (A) (A) (A) (A) (A) (A) (A) (A) (A)
                 (A) (A) (A) (A) (A) (A) (A) (A) (A) (A) (A) (A)
                 (A) (A) (A) (A) (A) (A) (A) (A) (A) (A) (A) (A)
                 (A) (A) (A) (A) (A) (A) (A) (A) (A) (A) (A) (A)
                 (A) (A) (A) (A) (A) (A) (A) (A) (A) (A) (A) (A)
                 (A) (A) (A) (A) (A) (A) (A) (A) (A) (A) (A) (A)
                 (A) (A) (A) (A) (A) (A) (A) (A) (A) (A) (A) (A)
                 (A) (A) (A) (A) (A) (A) (A) (A) (A) (A) (A)
       Virtual   (A) (A) (A) (A) (A) (A) (A) (A) (A) (A) (A) (A)
                 (A) (A) (A) (A) (A) (A) (A) (A) (A) (A) (A) (A)
                 (A) (A) (A) (A) (A) (A) (A) (A) (A) (A) (A) (A)
                 (A) (A) (A) (A) (A) (A) (A) (A) (A) (A) (A) (A)
                 (A) (A) (A) (A) (A) (A) (A) (A) (A) (A) (A) (A)
                 (A) (A) (A) (A) (A) (A) (A) (A) (A) (A) (A) (A)
                 (A) (A) (A) (A) (A) (A) (A) (A) (A) (A) (A) (A)
                 (A) (A) (A) (A) (A) (A) (A) (A) (A) (A) (A) (A)
                 (A) (A) (A) (A) (A) (A) (A) (A) (A) (A) (A) (A)
                 (A) (A) (A) (A) (A) (A) (A) (A) (A) (A) (A) (A)
                 (A) (A) (A) (A) (A) (A) (A) (A) (A) (A) (A) (A)
                 (A) (A) (A) (A) (A) (A) (A) (A) (A) (A) (A) (A)
                 (A) (A) (A) (A) (A) (A) (A) (A) (A) (A) (A) (A)
                 (A) (A) (A) (A) (A) (A) (A) (A) (A) (A) (A) (A)
                 (A) (A) (A) (A) (A) (A) (A) (A) (A) (A) (A) (A)
                 (A) (A) (A) (A) (A) (A) (A) (A) (A) (A) (A) (A)
                 (A) (A) (A) (A) (A) (A) (A) (A) (A) (A) (A) (A)
                 (A) (A) (A) (A) (A) (A) (A) (A) (A) (A) (A) (A)
                 (A) (A) (A) (A) (A) (A) (A) (A) (A) (A) (A) (A)
                 (A) (A) (A) (A) (A) (A) (A) (A) (A) (A) (A) (A)
                 (A) (A) (A) (A) (A) (A) (A) (A) (A) (A) (A) (A)
                 (A) (A) (A) (A) (A) (A) (A) (A) (A) (A) (A) (A)
                 (A) (A) (A) (A) (A) (A) (A) (A) (A) (A) (A) (A)
                 (A) (A) (A) (A) (A) (A) (A) (A) (A) (A) (A) (A)
                 (A) (A) (A) (A) (A) (A) (A) (A) (A) (A) (A) (A)
                 (A) (A) (A) (A) (A) (A) (A) (A) (A) (A) (A) (A)
                 (A) (A) (A) (A) (A) (A) (A) (A) (A) (A) (A) (A)
                 (A) (A) (A) (A) (A) (A) (A) (A) (A) (A) (A) (A)
                 (A) (A) (A) (A) (A) (A) (A) (A) (A) (A) (A) (A)
                 (A) (A) (A) (A) (A) (A) (A) (A) (A) (A) (A) (A)
                 (A) (A) (A) (A) (A) (A) (A) (A) (A) (A) (A) (A)
                 (A) (A) (A) (A) (A) (A) (A) (A) (A) (A) (A) (A)
                 (A) (A) (A) (A) (A) (A) (A) (A) (A) (A) (A) (A)
                 (A) (A) (A) (A) (A) (A) (A) (A) (A) (A) (A) (A)
                 (A) (A) (A) (A) (A) (A) (A) (A) (A) (A) (A) (A)
                 (A) (A) (A) (A) (A) (A) (A) (A) (A) (A) (A) (A)
                 (A) (A) (A) (A) (A) (A) (A) (A) (A) (A) (A) (A)
                 (A) (A) (A) (A) (A) (A) (A) (A) (A) (A) (A) (A)
                 (A) (A) (A) (A) (A) (A) (A) (A) (A) (A) (A) (A)
                 (A) (A) (A) (A) (A) (A) (A) (A) (A) (A) (A) (A)
                 (A) (A) (A) (A) (A) (A) (A) (A) (A) (A) (A) (A)
                 (A) (A) (A) (A) (A) (A) (A) (A) (A) (A) (A) (A)
                 (A) (A) (A) (A) (A) (A) (A) (A) (A) (A) (A) (A)
                 (A) (A) (A) (A) (A) (A) (A) (A) (A) (A) (A) (A)
                 (A) (A) (A) (A) (A) (A) (A) (A) (A) (A) (A) (A)
                 (A) (A) (A) (A) (A) (A) (A) (A) (A) (A) (A) (A)
                 (A) (A) (A) (A) (A) (A) (A) (A) (A) (A) (A) (A)
                 (A) (A) (A) (A) (A) (A) (A) (A) (A) (A) (A) (A)
                 (A) (A) (A) (A) (A) (A) (A) (A) (A) (A) (A) (A)
                 (A) (A) (A) (A) (A) (A) (A) (A) (A) (A) (A) (A)
                 (A) (A) (A) (A) (A) (A) (A) (A) (A) (A) (A) (A)
                 (A) (A) (A) (A) (A) (A) (A) (A) (A) (A) (A) (A)
                 (A) (A) (A) (A) (A) (A) (A) (A) (A) (A) (A) (A)
                 (A) (A) (A) (A) (A) (A) (A) (A) (A) (A) (A) (A)
                 (A) (A) (A) (A) (A) (A) (A) (A) (A) (A) (A) (A)
                 (A) (A) (A) (A) (A) (A) (A) (A) (A) (A) (A) (A)
                 (A) (A) (A) (A) (A) (A) (A) (A) (A) (A) (A) (A)
                 (A) (A) (A) (A) (A) (A) (A) (A) (A) (A) (A) (A)
                 (A) (A) (A) (A) (A) (A) (A) (A) (A) (A) (A) (A)
                 (A) (A) (A) (A) (A) (A) (A) (A) (A) (A) (A) (A)
                 (A) (A) (A) (A) (A) (A) (A) (A) (A) (A) (A) (A)
                 (A) (A) (A) (A) (A) (A) (A) (A) (A) (A) (A) (A)
                 (A) (A) (A) (A) (A) (A) (A) (A) (A) (A) (A) (A)
                 (A) (A) (A) (A) (A) (A) (A) (A) (A) (A) (A) (A)
                 (A) (A) (A) (A) (A) (A) (A) (A) (A) (A) (A) (A)
                 (A) (A) (A) (A) (A) (A) (A) (A) (A) (A) (A) (A)
                 (A) (A) (A) (A) (A) (A) (A) (A) (A) (A) (A) (A)
                 (A) (A) (A) (A) (A) (A) (A) (A) (A) (A) (A) (A)
                 (A) (A) (A) (A) (A) (A) (A) (A) (A) (A) (A) (A)
                 (A) (A) (A) (A) (A) (A) (A) (A) (A) (A) (A) (A)
                 (A) (A) (A) (A) (A) (A) (A) (A) (A) (A) (A) (A)
                 (A) (A) (A) (A) (A) (A) (A) (A) (A) (A) (A) (A)
                 (A) (A) (A) (A) (A) (A) (A) (A) (A) (A) (A) (A)
                 (A) (A) (A) (A) (A) (A) (A) (A) (A) (A) (A) (A)
                 (A) (A) (A) (A) (A) (A) (A) (A) (A) (A) (A) (A)
                 (A) (A) (A) (A) (A) (A) (A) (A) (A) (A) (A) (A)
                 (A) (A) (A) (A) (A) (A) (A) (A) (A) (A) (A) (A)
                 (A) (A) (A) (A) (A) (A) (A) (A) (A) (A) (A) (A)
                 (A) (A) (A) (A) (A) (A) (A) (A) (A) (A) (A) (A)
                 (A) (A) (A) (A) (A) (A) (A) (A) (A) (A) (A) (A)
                 (A) (A) (A) (A) (A) (A) (A) (A) (A) (A) (A) (A)
                 (A) (A) (A) (A) (A) (A) (A) (A) (A) (A) (A) (A)
                 (A) (A) (A) (A) (A) (A) (A) (A) (A) (A) (A) (A)
                 (A) (A) (A) (A) (A) (A) (A) (A) (A) (A) (A) (A)
                 (A) (A) (A) (A) (A) (A) (A) (A) (A) (A) (A) (A)
                 (A) (A) (A) (A) (A) (A) (A) (A) (A) (A) (A) (A)
                 (A) (A) (A) (A) (A) (A) (A) (A) (A) (A) (A) (A)
                 (A) (A) (A) (A) (A) (A) (A) (A) (A) (A) (A) (A)
                 (A) (A) (A) (A) (A) (A) (A) (A) (A) (A) (A) (A)
                 (A) (A) (A) (A) (A) (A) (A) (A) (A) (A) (A) (A)
                 (A) (A) (A) (A) (A) (A) (A) (A) (A) (A) (A) (A)
                 (A) (A) (A) (A) (A) (A) (A) (A) (A) (A) (A) (A)
                 (A) (A) (A) (A) (A) (A) (A) (A) (A) (A) (A) (A)
                 (A) (A) (A) (A) (A) (A) (A) (A) (A) (A) (A) (A)
                 (A) (A) (A) (A) (A) (A) (A) (A) (A) (A) (A) (A)
                 (A) (A) (A) (A) (A) (A) (A) (A) (A) (A) (A) (A)
                 (A) (A) (A) (A) (A) (A) (A) (A) (A) (A) (A) (A)
                 (A) (A) (A) (A) (A) (A) (A) (A) (A) (A) (A) (A)
                 (A) (A) (A) (A) (A) (A) (A) (A) (A) (A) (A) (A)
                 (A) (A) (A) (A) (A) (A) (A) (A) (A) (A) (A) (A)
                 (A) (A) (A) (A) (A) (A) (A) (A) (A) (A) (A) (A)
                 (A) (A) (A) (A) (A) (A) (A) (A) (A) (A) (A) (A)
                 (A) (A) (A) (A) (A) (A) (A) (A) (A) (A) (A) (A)
                 (A) (A) (A) (A) (A) (A) (A) (A) (A) (A) (A) (A)
                 (A) (A) (A) (A) (A) (A) (A) (A) (A) (A) (A) (A)
                 (A) (A) (A) (A) (A) (A) (A) (A) (A) (A) (A) (A)
                 (A) (A) (A) (A) (A) (A) (A) (A) (A) (A) (A) (A)
                 (A) (A) (A) (A) (A) (A) (A) (A) (A) (A) (A) (A)
                 (A) (A) (A) (A) (A) (A) (A) (A) (A) (A) (A) (A)
                 (A) (A) (A) (A) (A) (A) (A) (A) (A) (A) (A) (A)
                 (A) (A) (A) (A) (A) (A) (A) (A) (A) (A) (A) (A)
                 (A) (A) (A) (A) (A) (A) (A) (A) (A) (A) (A) (A)
                 (A) (A) (A) (A) (A) (A) (A) (A) (A) (A) (A) (A)
                 (A) (A) (A) (A) (A) (A) (A) (A) (A) (A) (A) (A)
                 (A) (A) (A) (A) (A) (A) (A) (A) (A) (A) (A) (A)
                 (A) (A) (A) (A) (A) (A) (A) (A) (A) (A) (A) (A)
                 (A) (A) (A) (A) (A) (A) (A) (A) (A) (A) (A) (A)
                 (A) (A) (A) (A) (A) (A) (A) (A) (A) (A) (A) (A)
                 (A) (A) (A) (A) (A) (A) (A) (A) (A) (A) (A) (A)
                 (A) (A) (A) (A) (A) (A) (A) (A) (A) (A) (A) (A)
                 (A) (A) (A) (A) (A) (A) (A) (A) (A) (A) (A) (A)
                 (A) (A) (A) (A) (A) (A) (A) (A) (A) (A) (A) (A)
                 (A) (A) (A) (A) (A) (A) (A) (A) (A) (A) (A) (A)
                 (A) (A) (A) (A) (A) (A) (A) (A) (A) (A) (A) (A)
                 (A) (A) (A) (A) (A) (A) (A) (A) (A) (A) (A) (A)
                 (A) (A) (A) (A) (A) (A) (A) (A) (A) (A) (A) (A)
                 (A) (A) (A) (A) (A) (A) (A) (A) (A) (A) (A) (A)
                 (A) (A) (A) (A) (A) (A) (A) (A) (A) (A) (A) (A)
                 (A) (A) (A) (A) (A) (A) (A) (A) (A) (A) (A) (A)
                 (A) (A) (A) (A) (A) (A) (A) (A) (A) (A) (A) (A)
                 (A) (A) (A) (A) (A) (A) (A) (A) (A) (A) (A) (A)
                 (A) (A) (A) (A) (A) (A) (A) (A) (A) (A) (A) (A)
                 (A) (A) (A) (A) (A) (A) (A) (A) (A) (A) (A) (A)
                 (A) (A) (A) (A) (A) (A) (A) (A) (A) (A) (A) (A)
                 (A) (A) (A) (A) (A) (A) (A) (A) (A) (A) (A) (A)
                 (A) (A) (A) (A) (A) (A) (A) (A) (A) (A) (A) (A)
                 (A) (A) (A) (A) (A) (A) (A) (A) (A) (A) (A) (A)
                 (A) (A) (A) (A) (A) (A) (A) (A) (A) (A) (A) (A)
                 (A) (A) (A) (A) (A) (A) (A) (A) (A) (A) (A) (A)
                 (A) (A) (A) (A) (A) (A) (A) (A) (A) (A) (A) (A)
                 (A) (A) (A) (A) (A) (A) (A) (A) (A) (A) (A) (A)
                 (A) (A) (A) (A) (A) (A) (A) (A) (A) (A) (A) (A)
                 (A) (A) (A) (A) (A) (A) (A) (A) (A) (A) (A) (A)
                 (A) (A) (A) (A) (A) (A) (A) (A) (A) (A) (A) (A)
                 (A) (A) (A) (A) (A) (A) (A) (A) (A) (A) (A) (A)
                 (A) (A) (A) (A) (A) (A) (A) (A)
 The electronic state is 5-A.
 Alpha  occ. eigenvalues -- -256.29866 -88.99504 -30.08885 -25.91722 -25.91525
 Alpha  occ. eigenvalues --  -25.90025 -19.27120 -19.26245 -19.18247 -19.18073
 Alpha  occ. eigenvalues --  -14.44186 -14.37333 -14.36537 -14.36401 -14.35926
 Alpha  occ. eigenvalues --  -14.35409 -10.35686 -10.35563 -10.27088 -10.25207
 Alpha  occ. eigenvalues --  -10.23860 -10.23791 -10.23739 -10.23734 -10.23672
 Alpha  occ. eigenvalues --  -10.23665 -10.23573 -10.23514 -10.22842 -10.22724
 Alpha  occ. eigenvalues --  -10.22691 -10.22666 -10.22601 -10.22552 -10.22405
 Alpha  occ. eigenvalues --  -10.22122 -10.21840 -10.21731 -10.21671 -10.21550
 Alpha  occ. eigenvalues --  -10.21545 -10.21537 -10.21421 -10.21412 -10.21389
 Alpha  occ. eigenvalues --  -10.21258 -10.21188 -10.21134 -10.21125 -10.21088
 Alpha  occ. eigenvalues --  -10.21009 -10.20992 -10.20822 -10.20776 -10.19534
 Alpha  occ. eigenvalues --  -10.19265 -10.18881  -7.97476  -5.91137  -5.90843
 Alpha  occ. eigenvalues --   -5.90246  -3.47509  -2.25766  -2.24773  -2.19730
 Alpha  occ. eigenvalues --   -1.16725  -1.16686  -1.07263  -1.02432  -1.01878
 Alpha  occ. eigenvalues --   -0.97033  -0.96167  -0.95828  -0.94963  -0.91271
 Alpha  occ. eigenvalues --   -0.83496  -0.83212  -0.83037  -0.82817  -0.82480
 Alpha  occ. eigenvalues --   -0.82311  -0.81760  -0.80590  -0.80080  -0.78973
 Alpha  occ. eigenvalues --   -0.78678  -0.78017  -0.77718  -0.75747  -0.74919
 Alpha  occ. eigenvalues --   -0.73993  -0.73024  -0.72666  -0.71766  -0.71030
 Alpha  occ. eigenvalues --   -0.69953  -0.69790  -0.68858  -0.66025  -0.65613
 Alpha  occ. eigenvalues --   -0.65246  -0.64864  -0.64809  -0.64143  -0.62328
 Alpha  occ. eigenvalues --   -0.61826  -0.61508  -0.59637  -0.58722  -0.57217
 Alpha  occ. eigenvalues --   -0.56830  -0.55536  -0.54423  -0.54375  -0.53081
 Alpha  occ. eigenvalues --   -0.52208  -0.52097  -0.51823  -0.51424  -0.51165
 Alpha  occ. eigenvalues --   -0.50866  -0.50524  -0.49502  -0.49101  -0.48664
 Alpha  occ. eigenvalues --   -0.48482  -0.48192  -0.48093  -0.47766  -0.47462
 Alpha  occ. eigenvalues --   -0.46456  -0.46027  -0.45728  -0.45417  -0.45264
 Alpha  occ. eigenvalues --   -0.45050  -0.44816  -0.44578  -0.44374  -0.44202
 Alpha  occ. eigenvalues --   -0.43952  -0.43691  -0.43602  -0.43451  -0.43209
 Alpha  occ. eigenvalues --   -0.43071  -0.42988  -0.42709  -0.42486  -0.42322
 Alpha  occ. eigenvalues --   -0.42041  -0.41868  -0.41702  -0.40952  -0.40519
 Alpha  occ. eigenvalues --   -0.40333  -0.40151  -0.39881  -0.39846  -0.39244
 Alpha  occ. eigenvalues --   -0.39006  -0.38733  -0.38662  -0.38579  -0.38286
 Alpha  occ. eigenvalues --   -0.37687  -0.37548  -0.37466  -0.37337  -0.37294
 Alpha  occ. eigenvalues --   -0.36982  -0.36754  -0.36492  -0.36284  -0.36038
 Alpha  occ. eigenvalues --   -0.35434  -0.35044  -0.34053  -0.33935  -0.33761
 Alpha  occ. eigenvalues --   -0.33362  -0.33212  -0.32997  -0.32349  -0.32257
 Alpha  occ. eigenvalues --   -0.32039  -0.31647  -0.30212  -0.29782  -0.28061
 Alpha  occ. eigenvalues --   -0.27773  -0.27573  -0.27301  -0.27044  -0.26246
 Alpha  occ. eigenvalues --   -0.24296  -0.24211  -0.23051  -0.22802  -0.22366
 Alpha  occ. eigenvalues --   -0.21892  -0.20471  -0.20021  -0.19454  -0.18354
 Alpha  occ. eigenvalues --   -0.18161  -0.13296
 Alpha virt. eigenvalues --   -0.06586  -0.06375  -0.01295  -0.00753  -0.00394
 Alpha virt. eigenvalues --    0.02004   0.02439   0.02768   0.03011   0.03262
 Alpha virt. eigenvalues --    0.03707   0.04048   0.04621   0.05055   0.05353
 Alpha virt. eigenvalues --    0.05716   0.05988   0.06235   0.06297   0.06455
 Alpha virt. eigenvalues --    0.06948   0.07395   0.07660   0.08024   0.08154
 Alpha virt. eigenvalues --    0.08318   0.08473   0.08538   0.08899   0.09246
 Alpha virt. eigenvalues --    0.09711   0.09882   0.09983   0.10293   0.10484
 Alpha virt. eigenvalues --    0.11091   0.11167   0.11329   0.11724   0.12036
 Alpha virt. eigenvalues --    0.12223   0.12449   0.12470   0.12711   0.12955
 Alpha virt. eigenvalues --    0.13177   0.13271   0.13405   0.13649   0.13877
 Alpha virt. eigenvalues --    0.13993   0.14045   0.14328   0.14646   0.14806
 Alpha virt. eigenvalues --    0.15013   0.15162   0.15234   0.15353   0.15636
 Alpha virt. eigenvalues --    0.15784   0.15896   0.15942   0.16156   0.16491
 Alpha virt. eigenvalues --    0.16618   0.17020   0.17034   0.17550   0.17681
 Alpha virt. eigenvalues --    0.17980   0.18268   0.18453   0.18511   0.18851
 Alpha virt. eigenvalues --    0.18964   0.19162   0.19403   0.19528   0.19716
 Alpha virt. eigenvalues --    0.20099   0.20382   0.20454   0.20876   0.21133
 Alpha virt. eigenvalues --    0.21440   0.21611   0.21739   0.21949   0.22049
 Alpha virt. eigenvalues --    0.22103   0.22307   0.22478   0.22817   0.22959
 Alpha virt. eigenvalues --    0.23136   0.23336   0.23690   0.23954   0.24057
 Alpha virt. eigenvalues --    0.24084   0.24411   0.24480   0.24598   0.24868
 Alpha virt. eigenvalues --    0.25005   0.25248   0.25463   0.25787   0.26011
 Alpha virt. eigenvalues --    0.26224   0.26416   0.26551   0.26743   0.27027
 Alpha virt. eigenvalues --    0.27181   0.27555   0.27862   0.28051   0.28325
 Alpha virt. eigenvalues --    0.28599   0.28859   0.28973   0.29236   0.29419
 Alpha virt. eigenvalues --    0.29717   0.30066   0.30154   0.30382   0.30595
 Alpha virt. eigenvalues --    0.30868   0.30916   0.31109   0.31239   0.31706
 Alpha virt. eigenvalues --    0.32027   0.32124   0.32354   0.32528   0.32656
 Alpha virt. eigenvalues --    0.32794   0.33129   0.33213   0.33392   0.33761
 Alpha virt. eigenvalues --    0.33944   0.34051   0.34287   0.34442   0.34704
 Alpha virt. eigenvalues --    0.34974   0.35240   0.35736   0.35925   0.35984
 Alpha virt. eigenvalues --    0.36401   0.36621   0.36690   0.37049   0.37164
 Alpha virt. eigenvalues --    0.37238   0.37452   0.37668   0.38019   0.38143
 Alpha virt. eigenvalues --    0.38461   0.38594   0.38947   0.39122   0.39375
 Alpha virt. eigenvalues --    0.39847   0.39970   0.40046   0.40190   0.40310
 Alpha virt. eigenvalues --    0.40511   0.40723   0.40913   0.41155   0.41219
 Alpha virt. eigenvalues --    0.41409   0.41522   0.41820   0.42069   0.42303
 Alpha virt. eigenvalues --    0.42416   0.42607   0.42817   0.42907   0.43159
 Alpha virt. eigenvalues --    0.43260   0.43387   0.43614   0.43733   0.43830
 Alpha virt. eigenvalues --    0.44270   0.44315   0.44529   0.44741   0.45059
 Alpha virt. eigenvalues --    0.45127   0.45284   0.45544   0.45628   0.45906
 Alpha virt. eigenvalues --    0.46052   0.46283   0.46403   0.46472   0.46558
 Alpha virt. eigenvalues --    0.46808   0.46906   0.47136   0.47252   0.47423
 Alpha virt. eigenvalues --    0.47574   0.47798   0.47859   0.48064   0.48199
 Alpha virt. eigenvalues --    0.48363   0.48605   0.48655   0.48809   0.48915
 Alpha virt. eigenvalues --    0.49143   0.49281   0.49388   0.49487   0.49586
 Alpha virt. eigenvalues --    0.49988   0.50070   0.50302   0.50378   0.50561
 Alpha virt. eigenvalues --    0.50678   0.50882   0.51005   0.51343   0.51494
 Alpha virt. eigenvalues --    0.51707   0.51888   0.52136   0.52297   0.52445
 Alpha virt. eigenvalues --    0.52576   0.52688   0.52894   0.53151   0.53386
 Alpha virt. eigenvalues --    0.53430   0.53532   0.53792   0.53966   0.54102
 Alpha virt. eigenvalues --    0.54207   0.54361   0.54565   0.54765   0.55000
 Alpha virt. eigenvalues --    0.55218   0.55369   0.55581   0.55779   0.56022
 Alpha virt. eigenvalues --    0.56168   0.56449   0.56483   0.56683   0.57136
 Alpha virt. eigenvalues --    0.57421   0.57486   0.57879   0.58065   0.58105
 Alpha virt. eigenvalues --    0.58481   0.58506   0.58828   0.59053   0.59371
 Alpha virt. eigenvalues --    0.59455   0.59611   0.59759   0.59933   0.60342
 Alpha virt. eigenvalues --    0.60546   0.60653   0.60819   0.61236   0.61460
 Alpha virt. eigenvalues --    0.61748   0.62143   0.62225   0.62601   0.62716
 Alpha virt. eigenvalues --    0.62984   0.63147   0.63312   0.63729   0.64038
 Alpha virt. eigenvalues --    0.64466   0.64713   0.64853   0.65259   0.65413
 Alpha virt. eigenvalues --    0.65645   0.65838   0.66130   0.66208   0.66587
 Alpha virt. eigenvalues --    0.66746   0.67018   0.67460   0.67677   0.67950
 Alpha virt. eigenvalues --    0.68328   0.68565   0.68818   0.68984   0.69221
 Alpha virt. eigenvalues --    0.69873   0.70148   0.70344   0.70668   0.70955
 Alpha virt. eigenvalues --    0.71107   0.71534   0.71811   0.72004   0.72449
 Alpha virt. eigenvalues --    0.73007   0.73145   0.73301   0.73642   0.73825
 Alpha virt. eigenvalues --    0.74014   0.74266   0.74945   0.75186   0.75252
 Alpha virt. eigenvalues --    0.75408   0.75809   0.76136   0.76273   0.76504
 Alpha virt. eigenvalues --    0.76775   0.76966   0.77290   0.77385   0.77605
 Alpha virt. eigenvalues --    0.77704   0.78085   0.78226   0.78550   0.78844
 Alpha virt. eigenvalues --    0.79078   0.79490   0.79770   0.79857   0.80400
 Alpha virt. eigenvalues --    0.80530   0.81003   0.81247   0.81667   0.81893
 Alpha virt. eigenvalues --    0.82285   0.82718   0.83055   0.83315   0.83598
 Alpha virt. eigenvalues --    0.83872   0.84391   0.84759   0.84963   0.84993
 Alpha virt. eigenvalues --    0.85586   0.85908   0.86175   0.86247   0.86336
 Alpha virt. eigenvalues --    0.86834   0.87021   0.87463   0.87654   0.87956
 Alpha virt. eigenvalues --    0.88266   0.88469   0.89010   0.89151   0.89289
 Alpha virt. eigenvalues --    0.89565   0.89777   0.90138   0.90411   0.90506
 Alpha virt. eigenvalues --    0.90774   0.91052   0.91501   0.91819   0.92236
 Alpha virt. eigenvalues --    0.92401   0.92560   0.92716   0.92933   0.93147
 Alpha virt. eigenvalues --    0.93558   0.93888   0.94027   0.94458   0.94654
 Alpha virt. eigenvalues --    0.94857   0.95070   0.95467   0.95643   0.95908
 Alpha virt. eigenvalues --    0.96193   0.96442   0.96782   0.96917   0.97098
 Alpha virt. eigenvalues --    0.97466   0.97842   0.97927   0.98063   0.98630
 Alpha virt. eigenvalues --    0.98738   0.99019   0.99346   0.99565   1.00211
 Alpha virt. eigenvalues --    1.00463   1.00846   1.00934   1.01209   1.01481
 Alpha virt. eigenvalues --    1.01711   1.01990   1.02189   1.02530   1.03172
 Alpha virt. eigenvalues --    1.03455   1.03555   1.03656   1.04219   1.04313
 Alpha virt. eigenvalues --    1.04456   1.04522   1.04947   1.05067   1.05344
 Alpha virt. eigenvalues --    1.05642   1.06023   1.06316   1.06478   1.06697
 Alpha virt. eigenvalues --    1.06931   1.07301   1.07877   1.08224   1.08363
 Alpha virt. eigenvalues --    1.08681   1.09217   1.09444   1.09504   1.09923
 Alpha virt. eigenvalues --    1.09977   1.10073   1.10556   1.11070   1.11642
 Alpha virt. eigenvalues --    1.11740   1.11980   1.12244   1.12410   1.12683
 Alpha virt. eigenvalues --    1.12883   1.13262   1.13768   1.14075   1.14406
 Alpha virt. eigenvalues --    1.14948   1.15186   1.15411   1.15973   1.16216
 Alpha virt. eigenvalues --    1.16446   1.16749   1.16931   1.17558   1.17767
 Alpha virt. eigenvalues --    1.18323   1.18377   1.18546   1.18806   1.19169
 Alpha virt. eigenvalues --    1.19719   1.20225   1.20622   1.21059   1.21268
 Alpha virt. eigenvalues --    1.21540   1.21740   1.21948   1.22282   1.22623
 Alpha virt. eigenvalues --    1.23304   1.23557   1.23878   1.24137   1.24362
 Alpha virt. eigenvalues --    1.24677   1.25033   1.25118   1.25770   1.26035
 Alpha virt. eigenvalues --    1.26499   1.26557   1.26764   1.27447   1.27498
 Alpha virt. eigenvalues --    1.27782   1.28496   1.28593   1.28748   1.29664
 Alpha virt. eigenvalues --    1.30208   1.30392   1.30657   1.30801   1.31401
 Alpha virt. eigenvalues --    1.31960   1.32214   1.32320   1.32905   1.33088
 Alpha virt. eigenvalues --    1.33574   1.33771   1.33967   1.34153   1.34822
 Alpha virt. eigenvalues --    1.35001   1.35051   1.35304   1.36048   1.36686
 Alpha virt. eigenvalues --    1.37057   1.37387   1.37671   1.38159   1.38307
 Alpha virt. eigenvalues --    1.38590   1.38758   1.39399   1.39991   1.40641
 Alpha virt. eigenvalues --    1.41102   1.41561   1.41829   1.42002   1.42712
 Alpha virt. eigenvalues --    1.43146   1.43769   1.44269   1.44528   1.44807
 Alpha virt. eigenvalues --    1.45282   1.45688   1.46066   1.46267   1.46441
 Alpha virt. eigenvalues --    1.46799   1.47404   1.47771   1.47967   1.48628
 Alpha virt. eigenvalues --    1.48778   1.49192   1.49326   1.49928   1.50296
 Alpha virt. eigenvalues --    1.50704   1.51057   1.51318   1.51481   1.51876
 Alpha virt. eigenvalues --    1.52170   1.52502   1.52651   1.52848   1.52990
 Alpha virt. eigenvalues --    1.53340   1.53472   1.53708   1.53855   1.54117
 Alpha virt. eigenvalues --    1.54320   1.54902   1.55027   1.55178   1.55428
 Alpha virt. eigenvalues --    1.55709   1.55970   1.56274   1.56421   1.56661
 Alpha virt. eigenvalues --    1.57008   1.57406   1.57549   1.57696   1.58151
 Alpha virt. eigenvalues --    1.58351   1.58573   1.58748   1.59000   1.59160
 Alpha virt. eigenvalues --    1.59410   1.59457   1.59843   1.60011   1.60165
 Alpha virt. eigenvalues --    1.60660   1.61021   1.61099   1.61378   1.61430
 Alpha virt. eigenvalues --    1.61585   1.61888   1.61927   1.62268   1.62576
 Alpha virt. eigenvalues --    1.62983   1.63071   1.63317   1.63620   1.63644
 Alpha virt. eigenvalues --    1.64088   1.64202   1.64516   1.64837   1.65137
 Alpha virt. eigenvalues --    1.65430   1.65604   1.65952   1.66224   1.66493
 Alpha virt. eigenvalues --    1.66784   1.67032   1.67333   1.67693   1.67884
 Alpha virt. eigenvalues --    1.68174   1.68299   1.68534   1.68775   1.69053
 Alpha virt. eigenvalues --    1.69671   1.70056   1.70262   1.70498   1.70676
 Alpha virt. eigenvalues --    1.71252   1.71483   1.71569   1.71839   1.72195
 Alpha virt. eigenvalues --    1.72382   1.72693   1.72968   1.73117   1.73521
 Alpha virt. eigenvalues --    1.73723   1.74106   1.74260   1.74505   1.74797
 Alpha virt. eigenvalues --    1.75137   1.75599   1.75806   1.75954   1.76347
 Alpha virt. eigenvalues --    1.76540   1.77068   1.77442   1.77647   1.78048
 Alpha virt. eigenvalues --    1.78360   1.78922   1.79285   1.79457   1.79694
 Alpha virt. eigenvalues --    1.80086   1.80641   1.81271   1.81515   1.81949
 Alpha virt. eigenvalues --    1.82206   1.82345   1.83064   1.83615   1.83752
 Alpha virt. eigenvalues --    1.84272   1.84686   1.84765   1.85342   1.85547
 Alpha virt. eigenvalues --    1.85760   1.86321   1.86343   1.86763   1.87058
 Alpha virt. eigenvalues --    1.87437   1.87582   1.88049   1.88518   1.88768
 Alpha virt. eigenvalues --    1.89093   1.89505   1.90570   1.90589   1.90724
 Alpha virt. eigenvalues --    1.91119   1.91416   1.92084   1.92350   1.92806
 Alpha virt. eigenvalues --    1.92947   1.93386   1.93494   1.93868   1.94117
 Alpha virt. eigenvalues --    1.94530   1.94819   1.95236   1.95778   1.96042
 Alpha virt. eigenvalues --    1.96350   1.96420   1.96974   1.97185   1.97813
 Alpha virt. eigenvalues --    1.97892   1.98184   1.98355   1.98495   1.99018
 Alpha virt. eigenvalues --    1.99382   1.99604   1.99879   2.00173   2.00398
 Alpha virt. eigenvalues --    2.00945   2.01225   2.01420   2.01766   2.02222
 Alpha virt. eigenvalues --    2.02521   2.02998   2.03480   2.03975   2.04438
 Alpha virt. eigenvalues --    2.04601   2.05061   2.05303   2.05693   2.05904
 Alpha virt. eigenvalues --    2.06307   2.06356   2.06650   2.06890   2.07176
 Alpha virt. eigenvalues --    2.07617   2.08210   2.08800   2.09010   2.09280
 Alpha virt. eigenvalues --    2.09787   2.09962   2.10204   2.10434   2.10734
 Alpha virt. eigenvalues --    2.10917   2.11143   2.11420   2.11909   2.12108
 Alpha virt. eigenvalues --    2.12485   2.12916   2.13256   2.13742   2.13989
 Alpha virt. eigenvalues --    2.14166   2.14426   2.14699   2.14909   2.15625
 Alpha virt. eigenvalues --    2.15930   2.16182   2.16281   2.16462   2.16938
 Alpha virt. eigenvalues --    2.17478   2.17819   2.18100   2.18360   2.18663
 Alpha virt. eigenvalues --    2.19213   2.19397   2.19892   2.20158   2.20695
 Alpha virt. eigenvalues --    2.21040   2.21151   2.21423   2.21964   2.22392
 Alpha virt. eigenvalues --    2.22650   2.23080   2.23503   2.23570   2.23927
 Alpha virt. eigenvalues --    2.24412   2.24598   2.24718   2.24950   2.25444
 Alpha virt. eigenvalues --    2.25748   2.25822   2.26704   2.27000   2.27185
 Alpha virt. eigenvalues --    2.27485   2.27635   2.28066   2.28529   2.28803
 Alpha virt. eigenvalues --    2.29701   2.29770   2.29863   2.30335   2.30613
 Alpha virt. eigenvalues --    2.30994   2.31162   2.31447   2.31774   2.32166
 Alpha virt. eigenvalues --    2.32525   2.32886   2.33141   2.33591   2.33763
 Alpha virt. eigenvalues --    2.34185   2.34926   2.34970   2.35513   2.35640
 Alpha virt. eigenvalues --    2.35789   2.36269   2.36416   2.36982   2.37437
 Alpha virt. eigenvalues --    2.37699   2.38114   2.38239   2.38549   2.38604
 Alpha virt. eigenvalues --    2.39166   2.39199   2.39847   2.40241   2.40521
 Alpha virt. eigenvalues --    2.40831   2.41321   2.41472   2.41729   2.42188
 Alpha virt. eigenvalues --    2.42635   2.42896   2.43428   2.43725   2.44006
 Alpha virt. eigenvalues --    2.44724   2.44956   2.45530   2.45839   2.46066
 Alpha virt. eigenvalues --    2.46327   2.46870   2.46950   2.47127   2.47471
 Alpha virt. eigenvalues --    2.48036   2.48272   2.49138   2.49405   2.49503
 Alpha virt. eigenvalues --    2.49821   2.49915   2.50486   2.50783   2.50928
 Alpha virt. eigenvalues --    2.51352   2.51452   2.52038   2.52375   2.52587
 Alpha virt. eigenvalues --    2.53350   2.53958   2.54304   2.54404   2.54954
 Alpha virt. eigenvalues --    2.55318   2.55671   2.55942   2.56157   2.56423
 Alpha virt. eigenvalues --    2.56515   2.57175   2.57592   2.57966   2.58015
 Alpha virt. eigenvalues --    2.58525   2.58590   2.58835   2.59220   2.59559
 Alpha virt. eigenvalues --    2.59693   2.60033   2.60347   2.60632   2.60751
 Alpha virt. eigenvalues --    2.61043   2.61457   2.61656   2.61793   2.62338
 Alpha virt. eigenvalues --    2.62684   2.63099   2.63366   2.63541   2.63729
 Alpha virt. eigenvalues --    2.63936   2.64063   2.64781   2.64914   2.65671
 Alpha virt. eigenvalues --    2.65789   2.65899   2.66219   2.66636   2.67010
 Alpha virt. eigenvalues --    2.67598   2.67724   2.68093   2.68269   2.68614
 Alpha virt. eigenvalues --    2.68796   2.69430   2.69627   2.69962   2.70355
 Alpha virt. eigenvalues --    2.70604   2.70816   2.71121   2.71198   2.71553
 Alpha virt. eigenvalues --    2.71705   2.72114   2.72361   2.72521   2.73088
 Alpha virt. eigenvalues --    2.73521   2.73805   2.73898   2.74213   2.74376
 Alpha virt. eigenvalues --    2.75024   2.75089   2.75303   2.75740   2.76246
 Alpha virt. eigenvalues --    2.76467   2.76823   2.77177   2.77559   2.78154
 Alpha virt. eigenvalues --    2.78177   2.78266   2.78335   2.79253   2.79505
 Alpha virt. eigenvalues --    2.79863   2.79977   2.80394   2.80680   2.80934
 Alpha virt. eigenvalues --    2.81180   2.81361   2.81945   2.82328   2.82600
 Alpha virt. eigenvalues --    2.82715   2.83249   2.83643   2.83693   2.84201
 Alpha virt. eigenvalues --    2.84755   2.85121   2.85324   2.85954   2.86284
 Alpha virt. eigenvalues --    2.86510   2.86806   2.87600   2.87951   2.88167
 Alpha virt. eigenvalues --    2.88759   2.88866   2.89168   2.89363   2.89720
 Alpha virt. eigenvalues --    2.90282   2.90623   2.90774   2.90953   2.91668
 Alpha virt. eigenvalues --    2.91708   2.92082   2.92158   2.92501   2.92903
 Alpha virt. eigenvalues --    2.93378   2.93712   2.94020   2.94373   2.94577
 Alpha virt. eigenvalues --    2.94877   2.94954   2.95236   2.95386   2.95944
 Alpha virt. eigenvalues --    2.96056   2.96339   2.96727   2.96942   2.97342
 Alpha virt. eigenvalues --    2.97673   2.97966   2.98285   2.98423   2.98764
 Alpha virt. eigenvalues --    2.99000   2.99155   3.00013   3.00058   3.00532
 Alpha virt. eigenvalues --    3.00775   3.01396   3.01690   3.01927   3.02485
 Alpha virt. eigenvalues --    3.02681   3.02929   3.03692   3.03950   3.03996
 Alpha virt. eigenvalues --    3.04338   3.04477   3.05142   3.05539   3.05788
 Alpha virt. eigenvalues --    3.05821   3.05914   3.06285   3.06446   3.06668
 Alpha virt. eigenvalues --    3.06967   3.07284   3.07667   3.07881   3.08353
 Alpha virt. eigenvalues --    3.08784   3.08906   3.09038   3.09194   3.09838
 Alpha virt. eigenvalues --    3.10215   3.10497   3.10549   3.10575   3.11106
 Alpha virt. eigenvalues --    3.11301   3.11576   3.11938   3.12154   3.12585
 Alpha virt. eigenvalues --    3.12834   3.13095   3.13481   3.13836   3.14012
 Alpha virt. eigenvalues --    3.14171   3.14471   3.14932   3.15127   3.15275
 Alpha virt. eigenvalues --    3.15657   3.15897   3.16056   3.16520   3.16598
 Alpha virt. eigenvalues --    3.16800   3.16877   3.17250   3.17679   3.18177
 Alpha virt. eigenvalues --    3.18238   3.18661   3.19062   3.19140   3.19412
 Alpha virt. eigenvalues --    3.19568   3.19902   3.20042   3.20187   3.20807
 Alpha virt. eigenvalues --    3.21374   3.21516   3.21907   3.22006   3.22190
 Alpha virt. eigenvalues --    3.22416   3.22818   3.23225   3.23428   3.23648
 Alpha virt. eigenvalues --    3.23679   3.23993   3.24136   3.24498   3.24736
 Alpha virt. eigenvalues --    3.25133   3.25228   3.25329   3.25679   3.25990
 Alpha virt. eigenvalues --    3.26331   3.26525   3.26769   3.26858   3.27318
 Alpha virt. eigenvalues --    3.27466   3.27542   3.28009   3.28504   3.28630
 Alpha virt. eigenvalues --    3.28999   3.29033   3.29270   3.29452   3.29691
 Alpha virt. eigenvalues --    3.30120   3.30313   3.30619   3.30758   3.31012
 Alpha virt. eigenvalues --    3.31311   3.31370   3.31758   3.32094   3.32171
 Alpha virt. eigenvalues --    3.32735   3.33016   3.33066   3.33365   3.33751
 Alpha virt. eigenvalues --    3.33825   3.33861   3.34282   3.34648   3.34860
 Alpha virt. eigenvalues --    3.35157   3.35397   3.35649   3.35670   3.36019
 Alpha virt. eigenvalues --    3.36114   3.36565   3.36927   3.37228   3.37542
 Alpha virt. eigenvalues --    3.37790   3.37948   3.38202   3.38410   3.38466
 Alpha virt. eigenvalues --    3.38916   3.39037   3.39217   3.39519   3.39806
 Alpha virt. eigenvalues --    3.39935   3.40270   3.40477   3.40818   3.40990
 Alpha virt. eigenvalues --    3.41272   3.41361   3.41719   3.41911   3.42183
 Alpha virt. eigenvalues --    3.42323   3.42903   3.42975   3.43206   3.43587
 Alpha virt. eigenvalues --    3.43727   3.43972   3.44147   3.44400   3.44829
 Alpha virt. eigenvalues --    3.45077   3.45486   3.45764   3.45975   3.46246
 Alpha virt. eigenvalues --    3.46439   3.46711   3.47071   3.47321   3.47709
 Alpha virt. eigenvalues --    3.47889   3.48301   3.48535   3.49001   3.49034
 Alpha virt. eigenvalues --    3.49220   3.49715   3.49892   3.49986   3.50666
 Alpha virt. eigenvalues --    3.50784   3.50915   3.51403   3.51846   3.52139
 Alpha virt. eigenvalues --    3.52547   3.52859   3.53061   3.53157   3.53806
 Alpha virt. eigenvalues --    3.54096   3.54442   3.54929   3.55339   3.55701
 Alpha virt. eigenvalues --    3.55934   3.56430   3.56704   3.56779   3.57303
 Alpha virt. eigenvalues --    3.57696   3.57865   3.58201   3.58506   3.58895
 Alpha virt. eigenvalues --    3.59124   3.59409   3.59702   3.60073   3.60326
 Alpha virt. eigenvalues --    3.60498   3.61199   3.61374   3.61776   3.62332
 Alpha virt. eigenvalues --    3.62624   3.62927   3.63151   3.63580   3.64149
 Alpha virt. eigenvalues --    3.64376   3.64500   3.64783   3.65737   3.65991
 Alpha virt. eigenvalues --    3.66255   3.66591   3.67064   3.67250   3.67717
 Alpha virt. eigenvalues --    3.67796   3.68214   3.68673   3.69008   3.69152
 Alpha virt. eigenvalues --    3.70037   3.70520   3.70837   3.70951   3.71071
 Alpha virt. eigenvalues --    3.71832   3.71871   3.72332   3.72863   3.72983
 Alpha virt. eigenvalues --    3.73194   3.73407   3.73686   3.74049   3.74482
 Alpha virt. eigenvalues --    3.74589   3.75148   3.75533   3.75795   3.76027
 Alpha virt. eigenvalues --    3.76430   3.76530   3.77170   3.77432   3.77908
 Alpha virt. eigenvalues --    3.78349   3.78608   3.78776   3.79139   3.79782
 Alpha virt. eigenvalues --    3.80230   3.80618   3.81294   3.81469   3.81861
 Alpha virt. eigenvalues --    3.82066   3.82861   3.83176   3.83418   3.83904
 Alpha virt. eigenvalues --    3.84824   3.84994   3.85338   3.86131   3.86672
 Alpha virt. eigenvalues --    3.87037   3.87506   3.87756   3.88201   3.88813
 Alpha virt. eigenvalues --    3.89019   3.90052   3.90741   3.91138   3.91500
 Alpha virt. eigenvalues --    3.91929   3.92368   3.92667   3.93145   3.93422
 Alpha virt. eigenvalues --    3.93889   3.94800   3.95184   3.95588   3.96316
 Alpha virt. eigenvalues --    3.96817   3.96965   3.97185   3.97984   3.98350
 Alpha virt. eigenvalues --    3.98390   3.99104   3.99399   3.99656   4.00079
 Alpha virt. eigenvalues --    4.00571   4.00870   4.00998   4.01352   4.02461
 Alpha virt. eigenvalues --    4.02667   4.02903   4.03884   4.04161   4.04665
 Alpha virt. eigenvalues --    4.05373   4.05772   4.05884   4.07109   4.07343
 Alpha virt. eigenvalues --    4.07912   4.08608   4.08904   4.09426   4.10069
 Alpha virt. eigenvalues --    4.10732   4.11295   4.11731   4.12123   4.12988
 Alpha virt. eigenvalues --    4.13568   4.14040   4.14922   4.15665   4.16309
 Alpha virt. eigenvalues --    4.16501   4.16909   4.17701   4.18345   4.18601
 Alpha virt. eigenvalues --    4.18939   4.19347   4.19803   4.19846   4.20309
 Alpha virt. eigenvalues --    4.21002   4.21847   4.22224   4.23363   4.23522
 Alpha virt. eigenvalues --    4.23908   4.24175   4.24385   4.25214   4.25622
 Alpha virt. eigenvalues --    4.25934   4.26607   4.27498   4.27999   4.28216
 Alpha virt. eigenvalues --    4.28847   4.29442   4.29993   4.30648   4.30750
 Alpha virt. eigenvalues --    4.30920   4.31316   4.33217   4.33397   4.33721
 Alpha virt. eigenvalues --    4.34415   4.34693   4.35463   4.35650   4.36177
 Alpha virt. eigenvalues --    4.36435   4.36847   4.37062   4.37691   4.38099
 Alpha virt. eigenvalues --    4.38949   4.39217   4.39747   4.40165   4.40334
 Alpha virt. eigenvalues --    4.40966   4.41507   4.42036   4.42294   4.42714
 Alpha virt. eigenvalues --    4.42934   4.43081   4.44061   4.44371   4.44713
 Alpha virt. eigenvalues --    4.44845   4.45508   4.46325   4.46697   4.47227
 Alpha virt. eigenvalues --    4.47320   4.48035   4.48693   4.49070   4.49971
 Alpha virt. eigenvalues --    4.50326   4.51626   4.51860   4.52233   4.52965
 Alpha virt. eigenvalues --    4.53757   4.54724   4.54826   4.55280   4.56330
 Alpha virt. eigenvalues --    4.56467   4.56745   4.57089   4.58218   4.58617
 Alpha virt. eigenvalues --    4.58974   4.60041   4.60149   4.60684   4.61507
 Alpha virt. eigenvalues --    4.61868   4.62540   4.62959   4.63423   4.64455
 Alpha virt. eigenvalues --    4.64939   4.65658   4.66448   4.66901   4.67185
 Alpha virt. eigenvalues --    4.67479   4.68231   4.68750   4.69304   4.69968
 Alpha virt. eigenvalues --    4.70746   4.71652   4.72241   4.72479   4.72937
 Alpha virt. eigenvalues --    4.73212   4.73765   4.74375   4.75030   4.75391
 Alpha virt. eigenvalues --    4.75616   4.76455   4.77708   4.77913   4.78078
 Alpha virt. eigenvalues --    4.78478   4.78906   4.81066   4.81943   4.82716
 Alpha virt. eigenvalues --    4.83048   4.83782   4.84325   4.84975   4.85738
 Alpha virt. eigenvalues --    4.86726   4.87255   4.88142   4.88493   4.89020
 Alpha virt. eigenvalues --    4.89513   4.90358   4.90906   4.91665   4.91768
 Alpha virt. eigenvalues --    4.92913   4.93594   4.94376   4.95268   4.96133
 Alpha virt. eigenvalues --    4.96748   4.96873   4.97936   4.98553   4.99432
 Alpha virt. eigenvalues --    5.00068   5.00583   5.01353   5.01807   5.02756
 Alpha virt. eigenvalues --    5.03877   5.04262   5.05255   5.05741   5.06238
 Alpha virt. eigenvalues --    5.07114   5.07872   5.08475   5.09610   5.10567
 Alpha virt. eigenvalues --    5.12312   5.12962   5.13449   5.15940   5.17028
 Alpha virt. eigenvalues --    5.17236   5.17992   5.18103   5.18636   5.19024
 Alpha virt. eigenvalues --    5.20202   5.21301   5.21548   5.23048   5.24095
 Alpha virt. eigenvalues --    5.24306   5.24809   5.25519   5.26000   5.26999
 Alpha virt. eigenvalues --    5.27978   5.28372   5.29262   5.29665   5.31894
 Alpha virt. eigenvalues --    5.33397   5.33497   5.36481   5.36854   5.37939
 Alpha virt. eigenvalues --    5.39208   5.39757   5.40097   5.41237   5.41481
 Alpha virt. eigenvalues --    5.43190   5.45517   5.46202   5.46805   5.48280
 Alpha virt. eigenvalues --    5.48605   5.48981   5.49603   5.50137   5.50948
 Alpha virt. eigenvalues --    5.52159   5.53428   5.56299   5.57330   5.57934
 Alpha virt. eigenvalues --    5.58640   5.59369   5.60467   5.60844   5.61007
 Alpha virt. eigenvalues --    5.61176   5.63286   5.64057   5.64391   5.65439
 Alpha virt. eigenvalues --    5.66787   5.68472   5.69810   5.74012   5.75793
 Alpha virt. eigenvalues --    5.76219   5.76956   5.79455   5.79580   5.83269
 Alpha virt. eigenvalues --    5.84632   5.86797   5.89429   5.89875   5.90592
 Alpha virt. eigenvalues --    5.96287   5.97207   5.98757   6.00367   6.02185
 Alpha virt. eigenvalues --    6.02393   6.04241   6.04723   6.05992   6.07393
 Alpha virt. eigenvalues --    6.09753   6.10974   6.13517   6.14166   6.15172
 Alpha virt. eigenvalues --    6.15428   6.17751   6.20476   6.23689   6.27776
 Alpha virt. eigenvalues --    6.29017   6.30811   6.31617   6.32380   6.33732
 Alpha virt. eigenvalues --    6.34070   6.35874   6.40955   6.41920   6.43998
 Alpha virt. eigenvalues --    6.45428   6.51581   6.51970   6.64277   6.64576
 Alpha virt. eigenvalues --    6.71498   6.74449   6.79571   6.83316   6.90325
 Alpha virt. eigenvalues --    6.92733   7.00449   7.03908   7.09785   7.12310
 Alpha virt. eigenvalues --    7.18320   7.20571   7.27826   7.29281   9.28198
 Alpha virt. eigenvalues --    9.59043   9.69527  20.28652  22.42392  22.44736
 Alpha virt. eigenvalues --   22.49580  22.52045  22.53371  22.55853  22.56452
 Alpha virt. eigenvalues --   22.57691  22.59216  22.66284  22.67753  22.69227
 Alpha virt. eigenvalues --   22.70658  22.75290  22.84537  22.85782  22.89147
 Alpha virt. eigenvalues --   22.91301  22.92736  22.96425  22.98140  23.00472
 Alpha virt. eigenvalues --   23.07533  23.08850  23.18720  23.25144  23.26368
 Alpha virt. eigenvalues --   23.30193  23.31231  23.40235  23.42639  23.44414
 Alpha virt. eigenvalues --   23.45480  23.51322  23.53225  23.55042  23.60516
 Alpha virt. eigenvalues --   23.70735  23.76796  23.79529  23.91179  32.52109
 Alpha virt. eigenvalues --   32.94532  33.02075  33.06211  33.10196  33.19263
 Alpha virt. eigenvalues --   43.92766  43.93178  43.94867  43.96386
  Beta  occ. eigenvalues -- -256.29801 -88.99467 -30.04745 -25.88623 -25.87339
  Beta  occ. eigenvalues --  -25.86873 -19.27120 -19.26245 -19.18247 -19.18073
  Beta  occ. eigenvalues --  -14.44168 -14.37181 -14.36572 -14.36448 -14.35916
  Beta  occ. eigenvalues --  -14.35263 -10.35686 -10.35563 -10.27068 -10.25207
  Beta  occ. eigenvalues --  -10.23801 -10.23799 -10.23725 -10.23682 -10.23677
  Beta  occ. eigenvalues --  -10.23652 -10.23565 -10.23517 -10.22842 -10.22721
  Beta  occ. eigenvalues --  -10.22691 -10.22647 -10.22565 -10.22552 -10.21838
  Beta  occ. eigenvalues --  -10.21732 -10.21666 -10.21557 -10.21556 -10.21537
  Beta  occ. eigenvalues --  -10.21419 -10.21384 -10.21363 -10.21265 -10.21241
  Beta  occ. eigenvalues --  -10.21130 -10.21113 -10.21109 -10.21008 -10.20998
  Beta  occ. eigenvalues --  -10.20907 -10.20820 -10.20773 -10.20628 -10.19634
  Beta  occ. eigenvalues --  -10.19363 -10.18882  -7.97426  -5.91104  -5.90807
  Beta  occ. eigenvalues --   -5.90177  -3.37512  -2.15833  -2.11554  -2.10702
  Beta  occ. eigenvalues --   -1.16725  -1.16686  -1.07160  -1.02431  -1.01878
  Beta  occ. eigenvalues --   -0.97001  -0.96158  -0.95742  -0.94899  -0.91087
  Beta  occ. eigenvalues --   -0.83383  -0.82859  -0.82528  -0.82287  -0.81786
  Beta  occ. eigenvalues --   -0.81698  -0.81430  -0.80501  -0.79997  -0.78916
  Beta  occ. eigenvalues --   -0.78517  -0.77685  -0.77315  -0.75691  -0.74900
  Beta  occ. eigenvalues --   -0.73947  -0.72972  -0.72655  -0.71707  -0.70963
  Beta  occ. eigenvalues --   -0.69930  -0.69786  -0.68830  -0.65995  -0.65563
  Beta  occ. eigenvalues --   -0.65139  -0.64726  -0.64688  -0.64082  -0.62265
  Beta  occ. eigenvalues --   -0.60073  -0.59630  -0.59380  -0.58571  -0.57153
  Beta  occ. eigenvalues --   -0.56763  -0.55231  -0.54122  -0.53909  -0.52838
  Beta  occ. eigenvalues --   -0.52196  -0.51867  -0.51668  -0.51381  -0.51082
  Beta  occ. eigenvalues --   -0.50768  -0.50395  -0.49368  -0.48889  -0.48549
  Beta  occ. eigenvalues --   -0.48358  -0.48142  -0.48036  -0.47688  -0.47364
  Beta  occ. eigenvalues --   -0.46111  -0.45876  -0.45319  -0.45168  -0.45045
  Beta  occ. eigenvalues --   -0.44593  -0.44428  -0.44354  -0.43918  -0.43682
  Beta  occ. eigenvalues --   -0.43587  -0.43414  -0.43281  -0.43195  -0.42994
  Beta  occ. eigenvalues --   -0.42880  -0.42737  -0.42530  -0.42334  -0.42144
  Beta  occ. eigenvalues --   -0.41835  -0.41524  -0.41417  -0.40892  -0.40416
  Beta  occ. eigenvalues --   -0.40046  -0.39872  -0.39746  -0.39566  -0.39145
  Beta  occ. eigenvalues --   -0.38934  -0.38619  -0.38512  -0.38496  -0.38195
  Beta  occ. eigenvalues --   -0.37593  -0.37403  -0.37291  -0.37186  -0.37053
  Beta  occ. eigenvalues --   -0.36763  -0.36447  -0.36191  -0.36048  -0.35637
  Beta  occ. eigenvalues --   -0.34979  -0.33985  -0.33775  -0.33368  -0.33338
  Beta  occ. eigenvalues --   -0.33206  -0.32884  -0.32353  -0.32057  -0.32004
  Beta  occ. eigenvalues --   -0.31368  -0.30925  -0.30005  -0.28958  -0.28023
  Beta  occ. eigenvalues --   -0.27765  -0.27497  -0.27180  -0.25536  -0.24682
  Beta  occ. eigenvalues --   -0.24002  -0.23541  -0.22768  -0.21711  -0.18523
  Beta  occ. eigenvalues --   -0.18205  -0.18011  -0.15547
  Beta virt. eigenvalues --   -0.07166  -0.06185  -0.03105  -0.02935  -0.01287
  Beta virt. eigenvalues --   -0.00741  -0.00327   0.00279   0.02243   0.02904
  Beta virt. eigenvalues --    0.03244   0.03369   0.03796   0.04259   0.04557
  Beta virt. eigenvalues --    0.04693   0.05229   0.05671   0.05916   0.06385
  Beta virt. eigenvalues --    0.06472   0.06705   0.07115   0.07519   0.07632
  Beta virt. eigenvalues --    0.08040   0.08091   0.08452   0.08487   0.08530
  Beta virt. eigenvalues --    0.08759   0.08983   0.09432   0.09824   0.10008
  Beta virt. eigenvalues --    0.10141   0.10255   0.10428   0.10645   0.11283
  Beta virt. eigenvalues --    0.11335   0.11501   0.11889   0.12201   0.12397
  Beta virt. eigenvalues --    0.12620   0.12658   0.12842   0.13162   0.13312
  Beta virt. eigenvalues --    0.13435   0.13526   0.13885   0.13954   0.14179
  Beta virt. eigenvalues --    0.14271   0.14548   0.14813   0.14914   0.15086
  Beta virt. eigenvalues --    0.15325   0.15414   0.15504   0.15734   0.16029
  Beta virt. eigenvalues --    0.16057   0.16229   0.16366   0.16556   0.16787
  Beta virt. eigenvalues --    0.17108   0.17160   0.17691   0.17864   0.18184
  Beta virt. eigenvalues --    0.18520   0.18597   0.18618   0.19001   0.19143
  Beta virt. eigenvalues --    0.19304   0.19485   0.19605   0.19853   0.20170
  Beta virt. eigenvalues --    0.20499   0.20621   0.20952   0.21251   0.21579
  Beta virt. eigenvalues --    0.21826   0.21897   0.22121   0.22270   0.22409
  Beta virt. eigenvalues --    0.22598   0.22709   0.23074   0.23138   0.23393
  Beta virt. eigenvalues --    0.23555   0.23777   0.24052   0.24193   0.24295
  Beta virt. eigenvalues --    0.24543   0.24673   0.24768   0.25054   0.25211
  Beta virt. eigenvalues --    0.25358   0.25570   0.25979   0.26242   0.26410
  Beta virt. eigenvalues --    0.26622   0.26771   0.26908   0.27130   0.27277
  Beta virt. eigenvalues --    0.27779   0.28053   0.28192   0.28526   0.28943
  Beta virt. eigenvalues --    0.28976   0.29397   0.29507   0.29786   0.29935
  Beta virt. eigenvalues --    0.30327   0.30354   0.30572   0.30751   0.31074
  Beta virt. eigenvalues --    0.31363   0.31436   0.31635   0.31844   0.32180
  Beta virt. eigenvalues --    0.32447   0.32805   0.32853   0.32941   0.33136
  Beta virt. eigenvalues --    0.33445   0.33539   0.33655   0.33967   0.34126
  Beta virt. eigenvalues --    0.34410   0.34643   0.34796   0.35152   0.35211
  Beta virt. eigenvalues --    0.35533   0.35889   0.36067   0.36185   0.36562
  Beta virt. eigenvalues --    0.36767   0.36946   0.37188   0.37339   0.37466
  Beta virt. eigenvalues --    0.37664   0.37866   0.38121   0.38377   0.38580
  Beta virt. eigenvalues --    0.38755   0.39082   0.39346   0.39568   0.39966
  Beta virt. eigenvalues --    0.40159   0.40193   0.40338   0.40414   0.40638
  Beta virt. eigenvalues --    0.41013   0.41208   0.41338   0.41352   0.41558
  Beta virt. eigenvalues --    0.41708   0.42077   0.42271   0.42438   0.42566
  Beta virt. eigenvalues --    0.42799   0.42975   0.43106   0.43289   0.43451
  Beta virt. eigenvalues --    0.43540   0.43900   0.43946   0.43986   0.44437
  Beta virt. eigenvalues --    0.44474   0.44574   0.45141   0.45161   0.45267
  Beta virt. eigenvalues --    0.45534   0.45738   0.45770   0.46056   0.46316
  Beta virt. eigenvalues --    0.46412   0.46610   0.46635   0.46795   0.46901
  Beta virt. eigenvalues --    0.47078   0.47346   0.47432   0.47515   0.47651
  Beta virt. eigenvalues --    0.47910   0.48025   0.48261   0.48356   0.48538
  Beta virt. eigenvalues --    0.48750   0.48805   0.48942   0.49089   0.49300
  Beta virt. eigenvalues --    0.49396   0.49524   0.49662   0.49705   0.50102
  Beta virt. eigenvalues --    0.50357   0.50402   0.50506   0.50742   0.50839
  Beta virt. eigenvalues --    0.50976   0.51189   0.51498   0.51679   0.51834
  Beta virt. eigenvalues --    0.52114   0.52273   0.52508   0.52599   0.52750
  Beta virt. eigenvalues --    0.52921   0.53105   0.53440   0.53519   0.53677
  Beta virt. eigenvalues --    0.53907   0.53941   0.54236   0.54400   0.54442
  Beta virt. eigenvalues --    0.54639   0.54648   0.54969   0.55342   0.55369
  Beta virt. eigenvalues --    0.55573   0.55902   0.56043   0.56275   0.56323
  Beta virt. eigenvalues --    0.56614   0.56699   0.56820   0.57272   0.57564
  Beta virt. eigenvalues --    0.57627   0.58012   0.58144   0.58274   0.58571
  Beta virt. eigenvalues --    0.58666   0.59031   0.59157   0.59524   0.59587
  Beta virt. eigenvalues --    0.59893   0.59931   0.59998   0.60404   0.60679
  Beta virt. eigenvalues --    0.60838   0.61074   0.61346   0.61616   0.61862
  Beta virt. eigenvalues --    0.62251   0.62383   0.62830   0.62974   0.63091
  Beta virt. eigenvalues --    0.63338   0.63513   0.63920   0.64263   0.64592
  Beta virt. eigenvalues --    0.64922   0.65017   0.65379   0.65664   0.65854
  Beta virt. eigenvalues --    0.66154   0.66243   0.66378   0.66826   0.67086
  Beta virt. eigenvalues --    0.67159   0.67600   0.67851   0.68086   0.68429
  Beta virt. eigenvalues --    0.68782   0.69080   0.69136   0.69500   0.69958
  Beta virt. eigenvalues --    0.70398   0.70446   0.70843   0.71083   0.71321
  Beta virt. eigenvalues --    0.71685   0.71925   0.72167   0.72547   0.73182
  Beta virt. eigenvalues --    0.73427   0.73547   0.73835   0.74110   0.74234
  Beta virt. eigenvalues --    0.74440   0.75079   0.75360   0.75466   0.75713
  Beta virt. eigenvalues --    0.75996   0.76352   0.76499   0.76785   0.76996
[...]
  1719. RY*(   2) H  79                  0.00008     1.77532   
  1720. RY*(   3) H  79                  0.00004     2.11088   
  1721. RY*(   4) H  79                  0.00004     2.16908   
  1722. RY*(   5) H  79                  0.00000     2.90489   
  1723. RY*(   1) H  80                  0.00026     1.22092   
  1724. RY*(   2) H  80                  0.00009     1.89651   
  1725. RY*(   3) H  80                  0.00003     1.91574   
  1726. RY*(   4) H  80                  0.00003     2.08092   
  1727. RY*(   5) H  80                  0.00000     2.95472   
  1728. RY*(   1) H  81                  0.00051     0.93262   
  1729. RY*(   2) H  81                  0.00008     1.84644   
  1730. RY*(   3) H  81                  0.00004     2.15966   
  1731. RY*(   4) H  81                  0.00003     1.98731   
  1732. RY*(   5) H  81                  0.00000     3.00641   
  1733. RY*(   1) H  82                  0.00031     1.38247   
  1734. RY*(   2) H  82                  0.00009     1.81063   
  1735. RY*(   3) H  82                  0.00003     2.16847   
  1736. RY*(   4) H  82                  0.00001     1.76626   
  1737. RY*(   5) H  82                  0.00000     2.93717   
  1738. RY*(   1) H  83                  0.00028     1.19626   
  1739. RY*(   2) H  83                  0.00008     1.81205   
  1740. RY*(   3) H  83                  0.00003     2.19446   
  1741. RY*(   4) H  83                  0.00001     2.17548   
  1742. RY*(   5) H  83                  0.00001     2.64355   
  1743. RY*(   1) H  84                  0.00041     1.06952   
  1744. RY*(   2) H  84                  0.00009     1.80807   
  1745. RY*(   3) H  84                  0.00004     2.15951   
  1746. RY*(   4) H  84                  0.00001     2.38324   
  1747. RY*(   5) H  84                  0.00001     2.60238   
  1748. RY*(   1) H  85                  0.00069     0.65412   
  1749. RY*(   2) H  85                  0.00013     2.22845   
  1750. RY*(   3) H  85                  0.00011     2.26356   
  1751. RY*(   4) H  85                  0.00006     3.01713   
  1752. RY*(   5) H  85                  0.00000     3.15116   
  1753. RY*(   1) H  86                  0.00021     1.79075   
  1754. RY*(   2) H  86                  0.00006     1.18688   
  1755. RY*(   3) H  86                  0.00005     2.11096   
  1756. RY*(   4) H  86                  0.00002     2.44443   
  1757. RY*(   5) H  86                  0.00001     2.75226   
  1758. RY*(   1) H  87                  0.00034     1.19004   
  1759. RY*(   2) H  87                  0.00009     1.50445   
  1760. RY*(   3) H  87                  0.00005     2.24421   
  1761. RY*(   4) H  87                  0.00002     2.31129   
  1762. RY*(   5) H  87                  0.00000     3.05676   
  1763. RY*(   1) H  88                  0.00042     1.22220   
  1764. RY*(   2) H  88                  0.00007     1.52081   
  1765. RY*(   3) H  88                  0.00005     2.25401   
  1766. RY*(   4) H  88                  0.00003     2.40467   
  1767. RY*(   5) H  88                  0.00000     3.07991   
  1768. RY*(   1) H  89                  0.00038     1.17759   
  1769. RY*(   2) H  89                  0.00011     1.72404   
  1770. RY*(   3) H  89                  0.00007     2.44983   
  1771. RY*(   4) H  89                  0.00001     2.24430   
  1772. RY*(   5) H  89                  0.00001     3.07364   
  1773. RY*(   1) H  90                  0.00035     1.05525   
  1774. RY*(   2) H  90                  0.00009     1.79695   
  1775. RY*(   3) H  90                  0.00003     2.10835   
  1776. RY*(   4) H  90                  0.00003     2.09546   
  1777. RY*(   5) H  90                  0.00000     2.91880   
  1778. RY*(   1) H  91                  0.00028     1.08114   
  1779. RY*(   2) H  91                  0.00007     1.82772   
  1780. RY*(   3) H  91                  0.00003     2.12253   
  1781. RY*(   4) H  91                  0.00001     1.96811   
  1782. RY*(   5) H  91                  0.00000     3.01439   
  1783. RY*(   1) H  92                  0.00039     1.01881   
  1784. RY*(   2) H  92                  0.00009     1.77379   
  1785. RY*(   3) H  92                  0.00004     2.16084   
  1786. RY*(   4) H  92                  0.00002     2.04837   
  1787. RY*(   5) H  92                  0.00000     2.97662   
  1788. RY*(   1) H  93                  0.00070     0.60705   
  1789. RY*(   2) H  93                  0.00015     2.22556   
  1790. RY*(   3) H  93                  0.00011     2.27050   
  1791. RY*(   4) H  93                  0.00006     2.99314   
  1792. RY*(   5) H  93                  0.00000     3.18448   
  1793. RY*(   1) H  94                  0.00038     1.13621   
  1794. RY*(   2) H  94                  0.00009     1.58626   
  1795. RY*(   3) H  94                  0.00005     2.23580   
  1796. RY*(   4) H  94                  0.00002     2.31400   
  1797. RY*(   5) H  94                  0.00000     3.06851   
  1798. RY*(   1) H  95                  0.00033     1.27393   
  1799. RY*(   2) H  95                  0.00006     1.45623   
  1800. RY*(   3) H  95                  0.00005     2.22360   
  1801. RY*(   4) H  95                  0.00003     2.35832   
  1802. RY*(   5) H  95                  0.00001     3.09463   
  1803. RY*(   1) H  96                  0.00023     1.62020   
  1804. RY*(   2) H  96                  0.00005     1.13778   
  1805. RY*(   3) H  96                  0.00005     2.24272   
  1806. RY*(   4) H  96                  0.00002     2.87069   
  1807. RY*(   5) H  96                  0.00002     2.45108   
  1808. RY*(   1) H  97                  0.00034     1.16953   
  1809. RY*(   2) H  97                  0.00011     1.68980   
  1810. RY*(   3) H  97                  0.00007     2.47628   
  1811. RY*(   4) H  97                  0.00001     2.24102   
  1812. RY*(   5) H  97                  0.00001     3.05600   
  1813. RY*(   1) H  98                  0.00034     1.01133   
  1814. RY*(   2) H  98                  0.00010     1.82373   
  1815. RY*(   3) H  98                  0.00003     2.10357   
  1816. RY*(   4) H  98                  0.00003     2.07042   
  1817. RY*(   5) H  98                  0.00000     2.96377   
  1818. RY*(   1) H  99                  0.00029     1.06194   
  1819. RY*(   2) H  99                  0.00007     1.83802   
  1820. RY*(   3) H  99                  0.00003     2.12294   
  1821. RY*(   4) H  99                  0.00002     1.99178   
  1822. RY*(   5) H  99                  0.00000     2.96796   
  1823. RY*(   1) H 100                  0.00038     1.00568   
  1824. RY*(   2) H 100                  0.00009     1.78170   
  1825. RY*(   3) H 100                  0.00003     2.11630   
  1826. RY*(   4) H 100                  0.00002     2.12007   
  1827. RY*(   5) H 100                  0.00000     2.98636   
  1828. RY*(   1) H 101                  0.00086     0.63026   
  1829. RY*(   2) H 101                  0.00013     2.19088   
  1830. RY*(   3) H 101                  0.00013     2.27563   
  1831. RY*(   4) H 101                  0.00006     3.06539   
  1832. RY*(   5) H 101                  0.00000     3.20464   
  1859. BD*(   1) C  12 - C  17          0.01077     0.58546   
  1860. BD*(   2) C  12 - C  17          0.20330     0.05357  1879(v),207(v),1864(r)
                                                    501(g),635(g),191(r)
  1861. BD*(   1) C  12 - C  47          0.01085     0.58408   
  1862. BD*(   1) C  12 - H  78          0.00756     0.45838   
  1863. BD*(   1) C  13 - C  20          0.01040     0.60244   
  1864. BD*(   2) C  13 - C  20          0.20815     0.05611  1897(v),1879(v),1860(r)
                                                    1868(r),527(g),1872(r)
                                                    713(g),191(r)
  1865. BD*(   1) C  13 - C  28          0.01027     0.58968   
  1866. BD*(   1) C  13 - H 101          0.00721     0.45305   
  1867. BD*(   1) C  14 - C  31          0.01010     0.59935   
  1868. BD*(   2) C  14 - C  31          0.21669     0.05471  1914(v),1901(v),1897(v)
                                                    1864(r),553(g),1872(r)
                                                    999(g),1870(g),1903(g)
  1869. BD*(   1) C  14 - C  36          0.01048     0.57854   
  1870. BD*(   1) C  14 - H  93          0.00652     0.45307   
  1871. BD*(   1) C  15 - C  39          0.00997     0.57888   
  1872. BD*(   2) C  15 - C  39          0.19217     0.05653  1931(v),1918(v),1914(v)
                                                    1868(r),579(g),1864(r)
                                                    1207(g),191(r)
  1873. BD*(   1) C  15 - C  44          0.01023     0.58865   
  1874. BD*(   1) C  15 - H  85          0.00629     0.45622   
  1875. BD*(   1) N  16 - C  17          0.01446     0.48844   
  1876. BD*(   1) N  16 - C  20          0.01438     0.48985   
  1877. BD*(   1) C  17 - C  18          0.01647     0.51272   
  1878. BD*(   1) C  18 - C  19          0.00941     0.64398   
  1879. BD*(   2) C  18 - C  19          0.12108     0.07914  1864(v),1860(v),1886(v)
                                                    1885(v),1887(v),1883(v)
  1880. BD*(   1) C  18 - C  22          0.01236     0.35952   
  1881. BD*(   1) C  19 - C  20          0.01680     0.50586   
  1882. BD*(   1) C  19 - C  21          0.00971     0.35920   
  1883. BD*(   1) C  21 - H  79          0.00337     0.41034   
  1884. BD*(   1) C  21 - H  80          0.00264     0.41566   
  1885. BD*(   1) C  21 - H  81          0.00454     0.40725   
  1886. BD*(   1) C  22 - C  23          0.00888     0.33902   
  1887. BD*(   1) C  22 - H  71          0.00684     0.41482   
  1888. BD*(   1) C  22 - H  72          0.00563     0.41592   
  1889. BD*(   1) C  23 - C  24          0.03314     0.36790   
  1890. BD*(   1) C  23 - H  69          0.00596     0.38938   
  1891. BD*(   1) C  23 - H  70          0.00551     0.39733   
  1892. BD*(   1) C  24 - O  25          0.03788     0.46220   
  1893. BD*(   1) C  24 - O  26          0.02715     0.48263   
  1894. BD*(   2) C  24 - O  26          0.10192     0.02419  1893(g),1890(v),1895(v)
  1895. BD*(   1) O  25 - H  68          0.00736     0.37575   
  1896. BD*(   1) N  27 - C  28          0.01464     0.48504   
  1897. BD*(   2) N  27 - C  28          0.33179     0.00999  1864(v),1901(v),1868(v)
                                                    195(r),919(g),190(r),893(g)
                                                    527(v),1931(r),1855(r)
                                                    192(r),1843(r),1856(r)
  1898. BD*(   1) N  27 - C  31          0.01462     0.50016   
  1899. BD*(   1) C  28 - C  29          0.01712     0.50749   
  1900. BD*(   1) C  29 - C  30          0.00842     0.65533   
  1901. BD*(   2) C  29 - C  30          0.12432     0.08387  1868(v),1897(v),1909(v)
                                                    1907(v),1905(v),1908(v)
                                                    945(g)
  1902. BD*(   1) C  29 - C  32          0.00978     0.36848   
  1903. BD*(   1) C  30 - C  31          0.01639     0.50600   
  1904. BD*(   1) C  30 - C  33          0.01496     0.38043   
  1905. BD*(   1) C  32 - H  98          0.00348     0.41298   
  1906. BD*(   1) C  32 - H  99          0.00215     0.42128   
  1907. BD*(   1) C  32 - H 100          0.00417     0.41395   
  1908. BD*(   1) C  33 - C  34          0.00322     0.57367   
  1909. BD*(   1) C  33 - H  97          0.00860     0.45754   
  1910. BD*(   1) C  34 - H  94          0.00584     0.41058   
  1911. BD*(   1) C  34 - H  95          0.00363     0.41415   
  1912. BD*(   1) C  34 - H  96          0.00211     0.41283   
  1913. BD*(   1) N  35 - C  36          0.01407     0.49479   
  1914. BD*(   2) N  35 - C  36          0.30890     0.01380  1868(v),1872(v),1918(v)
                                                    1127(g),191(r),1100(g)
                                                    553(v),1855(r),195(r),192(r)
                                                    1844(r),1845(r)
  1915. BD*(   1) N  35 - C  39          0.01488     0.48629   
  1916. BD*(   1) C  36 - C  37          0.01743     0.49839   
  1917. BD*(   1) C  37 - C  38          0.00806     0.65417   
  1918. BD*(   2) C  37 - C  38          0.11059     0.08598  1872(v),1914(v),1926(v)
                                                    1924(v),1922(v),1925(v)
  1919. BD*(   1) C  37 - C  40          0.00965     0.36585   
  1920. BD*(   1) C  38 - C  39          0.01487     0.51249   
  1921. BD*(   1) C  38 - C  41          0.01485     0.38266   
  1922. BD*(   1) C  40 - H  90          0.00386     0.41525   
  1923. BD*(   1) C  40 - H  91          0.00194     0.42361   
  1924. BD*(   1) C  40 - H  92          0.00416     0.41678   
  1925. BD*(   1) C  41 - C  42          0.00338     0.59206   
  1926. BD*(   1) C  41 - H  89          0.00916     0.45877   
  1927. BD*(   1) C  42 - H  86          0.00179     0.41339   
  1928. BD*(   1) C  42 - H  87          0.00477     0.41029   
  1929. BD*(   1) C  42 - H  88          0.00516     0.41481   
  1930. BD*(   1) N  43 - C  44          0.01465     0.48106   
  1931. BD*(   2) N  43 - C  44          0.31353     0.01278  1872(v),1935(v),207(v)
                                                    191(r),1335(g),1309(g)
                                                    1843(r),195(r),579(v),192(r)
                                                    1855(r),1854(r),190(r)
                                                    185(r)
  1932. BD*(   1) N  43 - C  47          0.01437     0.49439   
  1933. BD*(   1) C  44 - C  45          0.01674     0.50388   
  1934. BD*(   1) C  45 - C  46          0.00965     0.65234   
  1935. BD*(   2) C  45 - C  46          0.12861     0.08167  1931(v),207(v),1942(v)
                                                    1941(v),1849(r)
  1936. BD*(   1) C  45 - C  48          0.00999     0.37315   
  1937. BD*(   1) C  46 - C  47          0.01742     0.50477   
  1938. BD*(   1) C  46 - C  49          0.01235     0.38256   
  1939. BD*(   1) C  48 - H  82          0.00284     0.42045   
  1940. BD*(   1) C  48 - H  83          0.00317     0.41577   
  1941. BD*(   1) C  48 - H  84          0.00455     0.41322   
  1942. BD*(   1) C  49 - C  50          0.00886     0.37113   
  1943. BD*(   1) C  49 - H  76          0.00670     0.41781   
  1944. BD*(   1) C  49 - H  77          0.00647     0.42272   
  1945. BD*(   1) C  50 - C  51          0.03709     0.35459   
  1946. BD*(   1) C  50 - H  74          0.00667     0.39768   
  1947. BD*(   1) C  50 - H  75          0.00605     0.38707   
  1948. BD*(   1) C  51 - O  52          0.03499     0.48284   
  1949. BD*(   1) C  51 - O  53          0.02131     0.53079   
  1950. BD*(   2) C  51 - O  53          0.09502    -0.00103   
  1951. BD*(   1) O  52 - H  73          0.00691     0.37284   
       -------------------------------
              Total Lewis  144.57994  ( 97.4660%)
        Valence non-Lewis    3.45630  (  2.3300%)
        Rydberg non-Lewis    0.30260  (  0.2040%)
       -------------------------------
            Total unit  3  148.33884  (100.0000%)
           Charge unit  3    0.66116
 1\1\GINC-NODE534\SP\UPBE1PBE\def2TZVP\C41H48Fe1N6O4S1(5)\ZHARTOVSKA\09
 -Feb-2023\0\\# PBE1PBE/def2TZVP empiricaldispersion=GD3BJ scf=maxcycle
 =999 geom=check pop=nbo\\1cry_II_Q\\0,5\C,0,18.559999,-18.226,18.774\C
 ,0,19.341999,-18.736,17.632\N,0,20.49,-19.462,17.771\C,0,19.184,-18.62
 0001,16.302999\C,0,20.985001,-19.778,16.599001\N,0,20.198,-19.274,15.6
 85\C,0,21.131001,-21.854,10.425\C,0,20.629999,-20.459,10.334\S,0,21.37
 5999,-19.479,11.694\C,0,21.546,-17.886999,10.877\Fe,0,20.73,-19.146,13
 .891\C,0,23.254,-21.370001,14.31\C,0,22.868,-16.591,14.587\C,0,18.344,
 -16.879,12.904\C,0,18.507,-21.698999,13.581\N,0,22.68,-18.997999,14.37
 7\C,0,23.587,-20.037001,14.464\C,0,24.902,-19.514999,14.717\C,0,24.801
 001,-18.184999,14.799\C,0,23.416,-17.848,14.585\C,0,25.927,-17.158001,
 15.083\C,0,26.160999,-20.403999,14.944\C,0,26.521,-20.389999,16.452\C,
 0,27.712,-21.169001,16.908001\O,0,28.504,-21.518999,15.987\O,0,27.8150
 01,-21.408001,18.153\N,0,20.646999,-17.143,13.662\C,0,21.584999,-16.26
 6001,14.194\C,0,21.02,-14.941,14.258\C,0,19.784,-15.015,13.77\C,0,19.5
 27,-16.382999,13.392\C,0,21.808001,-13.723,14.79\C,0,18.775999,-13.826
 ,13.614\C,0,18.98,-13.086,12.477\N,0,18.805,-19.26,13.375\C,0,17.982,-
 18.209999,13.031\C,0,16.663,-18.742001,12.746\C,0,16.715,-20.063999,12
 .899\C,0,18.046,-20.417999,13.314\C,0,15.456,-17.882,12.29\C,0,15.536,
 -21.084999,12.724\C,0,15.273,-21.466,11.443\N,0,20.843,-21.16,13.98\C,
 0,19.826,-22.079,13.735\C,0,20.391001,-23.407,13.668\C,0,21.707001,-23
 .312,13.875\C,0,22.002001,-21.91,14.065\C,0,19.573,-24.687,13.407\C,0,
 22.796,-24.406,13.931\C,0,23.674999,-24.639999,12.707\C,0,24.436001,-2
 5.938999,12.584\O,0,24.766001,-26.277,11.42\O,0,24.688999,-26.58,13.63
 8\H,0,22.44946813,-17.87491319,10.30385144\H,0,20.7099979,-17.72788642
 ,10.22839868\H,0,21.57973302,-17.11050307,11.61240204\H,0,22.0737606,-
 21.86209275,10.93100282\H,0,20.42889771,-22.45032767,10.96937513\H,0,2
 1.25132915,-22.25471195,9.44018983\H,0,20.90976194,-20.0371363,9.39131
 038\H,0,19.56422737,-20.45269331,10.42882116\H,0,19.11168485,-17.45325
 494,19.26736374\H,0,17.63013974,-17.83098518,18.42154426\H,0,18.370912
 3,-19.02380764,19.46149486\H,0,18.3890174,-18.09762548,15.81307403\H,0
 ,20.89769326,-19.71783949,18.6475457\H,0,21.87399348,-20.34662265,16.4
 2219416\H,0,29.45271473,-21.4668627,16.12419389\H,0,26.67424561,-19.37
 021217,16.73739552\H,0,25.67133094,-20.7558672,16.98968295\H,0,26.9807
 9984,-20.01644378,14.37599688\H,0,25.95247384,-21.40677587,14.63439412
 \H,0,25.69428034,-26.34524809,11.1849688\H,0,23.04962705,-24.55299626,
 11.8431479\H,0,24.3909345,-23.84561151,12.67115492\H,0,23.4435334,-24.
 1713433,14.74986307\H,0,22.30861075,-25.33144513,14.15661699\H,0,24.06
 044473,-22.06871691,14.38964284\H,0,26.78655468,-17.39888989,14.493052
 29\H,0,25.58556565,-16.17566851,14.83131475\H,0,26.18606016,-17.190596
 01,16.12065379\H,0,20.12417343,-25.53828786,13.74819911\H,0,18.6432485
 1,-24.62966176,13.93347365\H,0,19.38371097,-24.78164326,12.35813761\H,
 0,17.76876568,-22.46756657,13.67698947\H,0,15.80370207,-22.36876715,11
 .22330297\H,0,14.2222939,-21.63324196,11.32921594\H,0,15.58640256,-20.
 69528887,10.77018265\H,0,14.97572877,-21.45725028,13.55612087\H,0,15.7
 2681567,-17.31965487,11.4209046\H,0,14.62992274,-18.5212937,12.0580518
 9\H,0,15.17836921,-17.2116063,13.07637995\H,0,17.67403799,-16.21029812
 ,12.40511253\H,0,18.42799451,-12.1717357,12.54265616\H,0,20.02245875,-
 12.86678921,12.37637006\H,0,18.64866058,-13.64230027,11.62515248\H,0,1
 8.00464881,-13.61219561,14.32407504\H,0,22.74139627,-13.64825325,14.27
 222959\H,0,21.23839357,-12.83165514,14.62890463\H,0,21.98989492,-13.84
 564041,15.83726975\H,0,23.49136663,-15.78917473,14.92373474\\Version=E
 S64L-G16RevA.03\State=5-A\HF=-3880.5055687\S2=6.067148\S2-1=0.\S2A=6.0
 01316\RMSD=2.123e-09\Dipole=0.030927,1.3134333,-0.577415\Quadrupole=17
 .7423212,-18.2025244,0.4602032,4.066878,-20.4264716,17.3953123\PG=C01 
 [X(C41H48Fe1N6O4S1)]\\@


 IT PROBABLY IS NOT POSSIBLE FOR A SCIENTIST TO INTERROGATE NATURE 
 FROM A WHOLLY DISINTERESTED VIEWPOINT.
 EVEN IF HE HAS NO PARTICULAR AXE TO GRIND, HE IS LIKELY TO HAVE 
 A DISTINCTIVE WAY OF VIEWING NATURE.

                                                   -- JOHN LOSEE
 Job cpu time:       4 days 17 hours 31 minutes 12.7 seconds.
 Elapsed time:       1 days  4 hours 27 minutes 12.8 seconds.
 File lengths (MBytes):  RWF=   3495 Int=      0 D2E=      0 Chk=    292 Scr=      1
 Normal termination of Gaussian 16 at Thu Feb  9 00:39:58 2023.
