 Entering Gaussian System, Link 0=g16
 Input=/net/homes/chemie/zhartovska/work/BioModel/Konrad/1cxc/1cxc12/1cxc16/1cxc16.com
 Output=/net/homes/chemie/zhartovska/work/BioModel/Konrad/1cxc/1cxc12/1cxc16/1cxc16.log
 Initial command:
 /afs/math/software/gaussian/g16.A03/g16/l1.exe "/scratch/zhartovska_gaussian.4VV2qH4/Gau-7525.inp" -scrdir="/scratch/zhartovska_gaussian.4VV2qH4/"
 Entering Link 1 = /afs/math/software/gaussian/g16.A03/g16/l1.exe PID=      7526.
  
 Copyright (c) 1988,1990,1992,1993,1995,1998,2003,2009,2016,
            Gaussian, Inc.  All Rights Reserved.
  
 This is part of the Gaussian(R) 16 program.  It is based on
 the Gaussian(R) 09 system (copyright 2009, Gaussian, Inc.),
 the Gaussian(R) 03 system (copyright 2003, Gaussian, Inc.),
 the Gaussian(R) 98 system (copyright 1998, Gaussian, Inc.),
 the Gaussian(R) 94 system (copyright 1995, Gaussian, Inc.),
 the Gaussian 92(TM) system (copyright 1992, Gaussian, Inc.),
 the Gaussian 90(TM) system (copyright 1990, Gaussian, Inc.),
 the Gaussian 88(TM) system (copyright 1988, Gaussian, Inc.),
 the Gaussian 86(TM) system (copyright 1986, Carnegie Mellon
 University), and the Gaussian 82(TM) system (copyright 1983,
 Carnegie Mellon University). Gaussian is a federally registered
 trademark of Gaussian, Inc.
  
 This software contains proprietary and confidential information,
 including trade secrets, belonging to Gaussian, Inc.
  
 This software is provided under written license and may be
 used, copied, transmitted, or stored only in accord with that
 written license.
  
 The following legend is applicable only to US Government
 contracts under FAR:
  
                    RESTRICTED RIGHTS LEGEND
  
 Use, reproduction and disclosure by the US Government is
 subject to restrictions as set forth in subparagraphs (a)
 and (c) of the Commercial Computer Software - Restricted
 Rights clause in FAR 52.227-19.
  
 Gaussian, Inc.
 340 Quinnipiac St., Bldg. 40, Wallingford CT 06492
  
  
 ---------------------------------------------------------------
 Warning -- This program may not be used in any manner that
 competes with the business of Gaussian, Inc. or will provide
 assistance to any competitor of Gaussian, Inc.  The licensee
 of this program is prohibited from giving any competitor of
 Gaussian, Inc. access to this program.  By using this program,
 the user acknowledges that Gaussian, Inc. is engaged in the
 business of creating and licensing software in the field of
 computational chemistry and represents and warrants to the
 licensee that it is not a competitor of Gaussian, Inc. and that
 it will not use this program in any manner prohibited above.
 ---------------------------------------------------------------
  

 Cite this work as:
 Gaussian 16, Revision A.03,
 M. J. Frisch, G. W. Trucks, H. B. Schlegel, G. E. Scuseria, 
 M. A. Robb, J. R. Cheeseman, G. Scalmani, V. Barone, 
 G. A. Petersson, H. Nakatsuji, X. Li, M. Caricato, A. V. Marenich, 
 J. Bloino, B. G. Janesko, R. Gomperts, B. Mennucci, H. P. Hratchian, 
 J. V. Ortiz, A. F. Izmaylov, J. L. Sonnenberg, D. Williams-Young, 
 F. Ding, F. Lipparini, F. Egidi, J. Goings, B. Peng, A. Petrone, 
 T. Henderson, D. Ranasinghe, V. G. Zakrzewski, J. Gao, N. Rega, 
 G. Zheng, W. Liang, M. Hada, M. Ehara, K. Toyota, R. Fukuda, 
 J. Hasegawa, M. Ishida, T. Nakajima, Y. Honda, O. Kitao, H. Nakai, 
 T. Vreven, K. Throssell, J. A. Montgomery, Jr., J. E. Peralta, 
 F. Ogliaro, M. J. Bearpark, J. J. Heyd, E. N. Brothers, K. N. Kudin, 
 V. N. Staroverov, T. A. Keith, R. Kobayashi, J. Normand, 
 K. Raghavachari, A. P. Rendell, J. C. Burant, S. S. Iyengar, 
 J. Tomasi, M. Cossi, J. M. Millam, M. Klene, C. Adamo, R. Cammi, 
 J. W. Ochterski, R. L. Martin, K. Morokuma, O. Farkas, 
 J. B. Foresman, and D. J. Fox, Gaussian, Inc., Wallingford CT, 2016.
 
 ******************************************
 Gaussian 16:  ES64L-G16RevA.03 25-Dec-2016
                 7-Nov-2022 
 ******************************************
 %nprocs=12
 Will use up to   12 processors via shared memory.
 %mem=16GB
 %oldchk=1cxc_III_D.chk
 %chk=1cxc_III_H.chk
 Copying data from "1cxc_III_D.chk" to current chk file "1cxc_III_H.chk"
 IOpt=  2 FromEx=T IUOpen= 4 IOptOp= 5 NList=   0 IFRang= 0 IUIn= 4 IUOut= 2.
 ----------------------------------------------------------------------
 # PBE1PBE/def2TZVP empiricaldispersion=GD3BJ scf=maxcycle=999 geom=che
 ck pop=nbo
 ----------------------------------------------------------------------
 1/29=2,38=1,172=1/1;
 2/12=2,40=1/2;
 3/5=44,7=101,11=2,14=-4,25=1,30=1,74=-13,124=41/1,2,3;
 4//1;
 5/5=2,7=999,38=5/2;
 6/7=2,8=2,9=2,10=2,28=1,40=1/1,7;
 99/5=1,9=1/99;
 ----------
 1cxc_III_H
 ----------
 Structure from the checkpoint file:  "1cxc_III_H.chk"
 Charge =  1 Multiplicity = 6
 Z-Matrix found in chk file.
 C,0,78.752998,25.169001,20.826
 C,0,79.831001,25.295,19.747
 N,0,79.633003,26.038,18.579
 C,0,81.039001,24.628,19.697001
 C,0,80.745003,25.796,17.85
 N,0,81.569,24.989,18.445
 C,0,87.301003,25.139999,16.516001
 C,0,86.764999,24.030001,17.419001
 S,0,85.233002,23.263,16.796
 C,0,85.511002,21.620001,17.33
 Fe,0,83.263,24.167999,17.721001
 C,0,82.996002,25.962999,14.866
 C,0,81.308998,21.716,16.389999
 C,0,83.694,22.281,20.549999
 C,0,84.963997,26.739,19.207001
 N,0,82.372002,23.871,15.983
 C,0,82.376999,24.725,14.891
 C,0,81.637001,24.15,13.781
 C,0,81.183998,22.943001,14.193
 C,0,81.616997,22.796,15.572
 C,0,80.466003,21.92,13.324
 C,0,81.334999,24.801001,12.439
 C,0,79.931,25.385,12.44
 C,0,79.619003,26.367001,11.322
 O,0,78.959999,27.35,11.59
 O,0,80.199997,26.236,10.25
 N,0,82.657997,22.391001,18.323
 C,0,81.778999,21.535999,17.674
 C,0,81.483002,20.371,18.490999
 C,0,82.213997,20.472,19.645
 C,0,82.927002,21.74,19.533001
 C,0,80.526001,19.236,18.107
 C,0,82.306999,19.500999,20.683001
 C,0,82.9152898,18.11683185,20.39031754
 N,0,84.172997,24.438999,19.468
 C,0,84.263,23.537001,20.524
 C,0,84.920998,24.139999,21.666
 C,0,85.278,25.389999,21.291
 C,0,84.799004,25.573999,19.934999
 C,0,84.983002,23.559,23.070999
 C,0,85.932999,26.341,22.066999
 C,0,87.223999,26.094999,22.693001
 N,0,83.831001,25.954,17.169001
 C,0,84.523003,26.914,17.905001
 C,0,84.813004,28.082001,17.101999
 C,0,84.324997,27.841,15.865
 C,0,83.692001,26.537001,15.919
 C,0,85.566002,29.334,17.547001
 C,0,84.656998,28.629,14.607
 C,0,85.712997,27.910999,13.768
 C,0,86.494003,28.816999,12.805
 O,0,87.511002,28.375999,12.29
 O,0,85.924004,29.778,12.316
 H,0,86.43022184,21.57302177,17.87564443
 H,0,84.70511162,21.30901652,17.9614502
 H,0,85.56766673,20.97328741,16.47944098
 H,0,88.24425242,24.84304872,16.10734336
 H,0,86.60798121,25.31851601,15.7205436
 H,0,87.42611681,26.03571797,17.08778248
 H,0,87.51439658,23.27176807,17.51057656
 H,0,86.57236195,24.44057225,18.38813578
 H,0,79.12190644,25.56925979,21.74719458
 H,0,77.88163149,25.71201109,20.52473527
 H,0,78.50176896,24.13763976,20.96045431
 H,0,78.8513545,26.61378281,18.3392089
 H,0,80.92646676,26.22368306,16.8861234
 H,0,81.47066703,23.9869344,20.43700056
 H,0,81.95421749,19.73332004,21.66609415
 H,0,83.85878024,18.02952899,20.88741311
 H,0,82.25356177,17.35428537,20.7446322
 H,0,83.05617101,18.00495467,19.33554933
 H,0,80.98605398,18.29389506,18.32075109
 H,0,79.62077427,19.3268281,18.67021828
 H,0,80.30341413,19.29531498,17.06209004
 H,0,83.85757957,21.68066302,21.42048003
 H,0,85.87046113,23.90254227,23.56017689
 H,0,84.12460964,23.87533449,23.62597201
 H,0,84.99753538,22.4905747,23.01481931
 H,0,87.94397837,26.78756088,22.30974163
 H,0,87.13664338,26.22080101,23.75198299
 H,0,87.54031088,25.09581473,22.4774144
 H,0,85.46791514,27.29400028,22.20978369
 H,0,85.46455636,27.55789718,19.68002081
 H,0,80.65692379,20.96616905,15.9931958
 H,0,81.06813756,21.03969104,13.23803423
 H,0,79.52741006,21.66781123,13.77159817
 H,0,80.29777381,22.33341767,12.35153675
 H,0,82.043032,25.58246942,12.25762642
 H,0,81.41219975,24.06689388,11.66438604
 H,0,79.23398844,24.57568552,12.37608641
 H,0,79.77924741,25.88484069,13.3738257
 H,0,81.15956392,26.2325026,10.22138026
 H,0,82.93195666,26.52437317,13.95734317
 H,0,86.50193577,29.38944365,17.03139071
 H,0,84.98176819,30.20117925,17.31990848
 H,0,85.74185198,29.28852686,18.60147195
 H,0,85.02679343,29.59378163,14.88511463
 H,0,83.7680099,28.74897633,14.02372833
 H,0,86.41026659,27.44356199,14.43148908
 H,0,85.22748885,27.14886917,13.19499044
 H,0,86.43468283,30.50249908,11.94734268
 Recover connectivity data from disk.
 Stoichiometry    C41H48FeN6O4S(1+,6)
 Framework group  C1[X(C41H48FeN6O4S)]
 Deg. of freedom   297
 Full point group                 C1      NOp   1
 Largest Abelian subgroup         C1      NOp   1
 Largest concise Abelian subgroup C1      NOp   1
                         Standard orientation:                         
 ---------------------------------------------------------------------
 Center     Atomic      Atomic             Coordinates (Angstroms)
 Number     Number       Type             X           Y           Z
 ---------------------------------------------------------------------
      1          6           0        2.696950   -1.802421    4.862558
      2          6           0        1.755409   -1.282022    3.774029
      3          7           0        0.364424   -1.370551    3.887166
      4          6           0        2.109695   -0.798069    2.530276
      5          6           0       -0.085529   -0.928021    2.692068
      6          7           0        0.875895   -0.600703    1.884125
      7          6           0       -0.614060    3.099490   -2.664315
      8          6           0        0.712625    2.342734   -2.619238
      9         16           0        0.519372    0.555136   -2.318269
     10          6           0        1.842575   -0.033833   -3.300173
     11         26           0        0.755783   -0.067386   -0.057266
     12          6           0       -2.624426   -0.135793    0.060431
     13          6           0        0.820637   -3.390412   -0.802439
     14          6           0        4.168467    0.059620   -0.352581
     15          6           0        0.750698    3.189102    0.994823
     16          7           0       -0.606837   -1.466726   -0.353662
     17          6           0       -1.982683   -1.315000   -0.277306
     18          6           0       -2.658953   -2.562205   -0.589497
     19          6           0       -1.696791   -3.474485   -0.861144
     20          6           0       -0.427221   -2.792289   -0.678007
     21          6           0       -1.933142   -4.891036   -1.365853
     22          6           0       -4.154488   -2.838469   -0.534509
     23          6           0       -4.515216   -3.532218    0.769660
     24          6           0       -5.992850   -3.547930    1.127351
     25          8           0       -6.303814   -3.368755    2.286486
     26          8           0       -6.814597   -3.544247    0.217068
     27          7           0        2.170944   -1.366176   -0.500680
     28          6           0        2.027952   -2.731208   -0.703436
     29          6           0        3.319770   -3.370873   -0.888791
     30          6           0        4.280354   -2.395356   -0.845012
     31          6           0        3.552636   -1.157257   -0.587559
     32          6           0        3.545480   -4.872386   -1.103371
     33          6           0        5.675172   -2.561132   -1.081529
     34          6           0        6.172237   -3.022260   -2.464239
     35          7           0        2.140401    1.333608    0.214006
     36          6           0        3.514454    1.212135    0.029454
     37          6           0        4.200065    2.425612    0.427126
     38          6           0        3.243115    3.304280    0.804968
     39          6           0        1.971984    2.617356    0.684988
     40          6           0        5.703040    2.586150    0.602399
     41          6           0        3.435187    4.601558    1.269489
     42          6           0        4.149461    5.614921    0.506610
     43          7           0       -0.622963    1.225613    0.437044
     44          6           0       -0.468171    2.542545    0.865871
     45          6           0       -1.749869    3.184099    1.062841
     46          6           0       -2.698313    2.278760    0.735407
     47          6           0       -1.998005    1.059743    0.378225
     48          6           0       -1.992886    4.623551    1.511678
     49          6           0       -4.167940    2.579401    0.483323
     50          6           0       -4.465699    2.664210   -1.012915
     51          6           0       -5.727189    3.462400   -1.373069
     52          8           0       -5.894836    3.787021   -2.539477
     53          8           0       -6.668257    3.448155   -0.597356
     54          1           0        2.369471    0.795750   -3.723343
     55          1           0        2.510189   -0.607626   -2.691936
     56          1           0        1.457190   -0.649772   -4.085665
     57          1           0       -0.769186    3.489064   -3.648727
     58          1           0       -1.413275    2.433427   -2.414286
     59          1           0       -0.588741    3.905905   -1.961496
     60          1           0        1.216519    2.479847   -3.553150
     61          1           0        1.316691    2.757532   -1.839528
     62          1           0        3.288347   -0.994038    5.238945
     63          1           0        2.121616   -2.224785    5.659740
     64          1           0        3.339166   -2.552276    4.450034
     65          1           0       -0.171961   -1.687256    4.669463
     66          1           0       -1.122694   -0.855360    2.439265
     67          1           0        3.092232   -0.615913    2.147732
     68          1           0        6.377580   -2.365267   -0.298484
     69          1           0        6.679769   -2.214288   -2.948484
     70          1           0        6.844983   -3.845727   -2.345012
     71          1           0        5.337323   -3.327160   -3.059936
     72          1           0        4.237634   -5.017855   -1.906280
     73          1           0        3.941370   -5.305034   -0.208392
     74          1           0        2.614930   -5.341971   -1.345167
     75          1           0        5.230083    0.109981   -0.476414
     76          1           0        5.976872    3.604023    0.418415
     77          1           0        5.976209    2.318352    1.601680
     78          1           0        6.212904    1.948961   -0.089648
     79          1           0        3.490907    6.430803    0.293203
     80          1           0        4.982879    5.968980    1.076659
     81          1           0        4.499615    5.189842   -0.410777
     82          1           0        3.041023    4.865719    2.228527
     83          1           0        0.747155    4.195751    1.357513
     84          1           0        0.846967   -4.443607   -0.989487
     85          1           0       -1.522890   -4.992525   -2.348856
     86          1           0       -1.458276   -5.588123   -0.707468
     87          1           0       -2.984393   -5.088170   -1.396003
     88          1           0       -4.687822   -1.913345   -0.602343
     89          1           0       -4.428737   -3.466018   -1.356621
     90          1           0       -4.175970   -4.545401    0.712444
     91          1           0       -3.986135   -3.046064    1.562521
     92          1           0       -6.798182   -2.846027   -0.441583
     93          1           0       -3.694218   -0.147930    0.077705
     94          1           0       -2.423229    5.180597    0.705821
     95          1           0       -2.662383    4.628693    2.346331
     96          1           0       -1.063303    5.069843    1.797335
     97          1           0       -4.418987    3.511919    0.944069
     98          1           0       -4.763743    1.802953    0.915811
     99          1           0       -3.628123    3.120211   -1.498127
    100          1           0       -4.576369    1.669616   -1.391642
    101          1           0       -7.339523    4.132833   -0.644439
 ---------------------------------------------------------------------
 Rotational constants (GHZ):           0.0637788           0.0447909           0.0339875
 Standard basis: def2TZVP (5D, 7F)
 There are  2218 symmetry adapted cartesian basis functions of A   symmetry.
 There are  1951 symmetry adapted basis functions of A   symmetry.
  1951 basis functions,  3156 primitive gaussians,  2218 cartesian basis functions
   207 alpha electrons      202 beta electrons
       nuclear repulsion energy      8961.5051956933 Hartrees.
 NAtoms=  101 NActive=  101 NUniq=  101 SFac= 1.00D+00 NAtFMM=   60 NAOKFM=T Big=T
 Integral buffers will be    131072 words long.
 Raffenetti 2 integral format.
 Two-electron integral symmetry is turned on.
 Nuclear repulsion after empirical dispersion term =     8961.3547778686 Hartrees.
 One-electron integrals computed using PRISM.
   1 Symmetry operations used in ECPInt.
 ECPInt:  NShTT=  305371 NPrTT=  941867 LenC2=  223623 LenP2D=  446174.
 LDataN:  DoStor=T MaxTD1= 6 Len=  172
 NBasis=  1951 RedAO= T EigKep=  2.87D-06  NBF=  1951
 NBsUse=  1951 1.00D-06 EigRej= -1.00D+00 NBFU=  1951
 ExpMin= 4.20D-02 ExpMax= 3.01D+05 ExpMxC= 2.91D+03 IAcc=3 IRadAn=         5 AccDes= 0.00D+00
 Harris functional with IExCor= 1009 and IRadAn=       5 diagonalized for initial guess.
 HarFok:  IExCor= 1009 AccDes= 0.00D+00 IRadAn=         5 IDoV= 1 UseB2=F ITyADJ=14
 ICtDFT=  3500011 ScaDFX=  1.000000  1.000000  1.000000  1.000000
 FoFCou: FMM=F IPFlag=           0 FMFlag=      100000 FMFlg1=        2001
         NFxFlg=           0 DoJE=T BraDBF=F KetDBF=T FulRan=T
         wScrn=  0.000000 ICntrl=       500 IOpCl=  0 I1Cent=   200000004 NGrid=           0
         NMat0=    1 NMatS0=      1 NMatT0=    0 NMatD0=    1 NMtDS0=    0 NMtDT0=    0
 Petite list used in FoFCou.
 Initial guess <Sx>= 0.0000 <Sy>= 0.0000 <Sz>= 2.5000 <S**2>= 8.7500 S= 2.5000
 Requested convergence on RMS density matrix=1.00D-08 within 999 cycles.
 Requested convergence on MAX density matrix=1.00D-06.
 Requested convergence on             energy=1.00D-06.
 No special actions if energy rises.
 EnCoef did   100 forward-backward iterations
 EnCoef did   100 forward-backward iterations
 EnCoef did     5 forward-backward iterations
 EnCoef did   100 forward-backward iterations
 EnCoef did   100 forward-backward iterations
 EnCoef did     9 forward-backward iterations
 EnCoef did     2 forward-backward iterations
 Restarting incremental Fock formation.
 Restarting incremental Fock formation.
 Restarting incremental Fock formation.
 Restarting incremental Fock formation.
 SCF Done:  E(UPBE1PBE) =  -3880.37990719     A.U. after   89 cycles
            NFock= 89  Conv=0.18D-08     -V/T= 2.0029
 <Sx>= 0.0000 <Sy>= 0.0000 <Sz>= 2.5000 <S**2>= 8.8315 S= 2.5136
 <L.S>= 0.000000000000E+00
 Annihilation of the first spin contaminant:
 S**2 before annihilation     8.8315,   after     8.7517
 Hyperfine terms turned off by default for NAtoms > 100.

 **********************************************************************

            Population analysis using the SCF density.

 **********************************************************************

 Orbital symmetries:
 Alpha Orbitals:
       Occupied  (A) (A) (A) (A) (A) (A) (A) (A) (A) (A) (A) (A)
                 (A) (A) (A) (A) (A) (A) (A) (A) (A) (A) (A) (A)
                 (A) (A) (A) (A) (A) (A) (A) (A) (A) (A) (A) (A)
                 (A) (A) (A) (A) (A) (A) (A) (A) (A) (A) (A) (A)
                 (A) (A) (A) (A) (A) (A) (A) (A) (A) (A) (A) (A)
                 (A) (A) (A) (A) (A) (A) (A) (A) (A) (A) (A) (A)
                 (A) (A) (A) (A) (A) (A) (A) (A) (A) (A) (A) (A)
                 (A) (A) (A) (A) (A) (A) (A) (A) (A) (A) (A) (A)
                 (A) (A) (A) (A) (A) (A) (A) (A) (A) (A) (A) (A)
                 (A) (A) (A) (A) (A) (A) (A) (A) (A) (A) (A) (A)
                 (A) (A) (A) (A) (A) (A) (A) (A) (A) (A) (A) (A)
                 (A) (A) (A) (A) (A) (A) (A) (A) (A) (A) (A) (A)
                 (A) (A) (A) (A) (A) (A) (A) (A) (A) (A) (A) (A)
                 (A) (A) (A) (A) (A) (A) (A) (A) (A) (A) (A) (A)
                 (A) (A) (A) (A) (A) (A) (A) (A) (A) (A) (A) (A)
                 (A) (A) (A) (A) (A) (A) (A) (A) (A) (A) (A) (A)
                 (A) (A) (A) (A) (A) (A) (A) (A) (A) (A) (A) (A)
                 (A) (A) (A)
       Virtual   (A) (A) (A) (A) (A) (A) (A) (A) (A) (A) (A) (A)
                 (A) (A) (A) (A) (A) (A) (A) (A) (A) (A) (A) (A)
                 (A) (A) (A) (A) (A) (A) (A) (A) (A) (A) (A) (A)
                 (A) (A) (A) (A) (A) (A) (A) (A) (A) (A) (A) (A)
                 (A) (A) (A) (A) (A) (A) (A) (A) (A) (A) (A) (A)
                 (A) (A) (A) (A) (A) (A) (A) (A) (A) (A) (A) (A)
                 (A) (A) (A) (A) (A) (A) (A) (A) (A) (A) (A) (A)
                 (A) (A) (A) (A) (A) (A) (A) (A) (A) (A) (A) (A)
                 (A) (A) (A) (A) (A) (A) (A) (A) (A) (A) (A) (A)
                 (A) (A) (A) (A) (A) (A) (A) (A) (A) (A) (A) (A)
                 (A) (A) (A) (A) (A) (A) (A) (A) (A) (A) (A) (A)
                 (A) (A) (A) (A) (A) (A) (A) (A) (A) (A) (A) (A)
                 (A) (A) (A) (A) (A) (A) (A) (A) (A) (A) (A) (A)
                 (A) (A) (A) (A) (A) (A) (A) (A) (A) (A) (A) (A)
                 (A) (A) (A) (A) (A) (A) (A) (A) (A) (A) (A) (A)
                 (A) (A) (A) (A) (A) (A) (A) (A) (A) (A) (A) (A)
                 (A) (A) (A) (A) (A) (A) (A) (A) (A) (A) (A) (A)
                 (A) (A) (A) (A) (A) (A) (A) (A) (A) (A) (A) (A)
                 (A) (A) (A) (A) (A) (A) (A) (A) (A) (A) (A) (A)
                 (A) (A) (A) (A) (A) (A) (A) (A) (A) (A) (A) (A)
                 (A) (A) (A) (A) (A) (A) (A) (A) (A) (A) (A) (A)
                 (A) (A) (A) (A) (A) (A) (A) (A) (A) (A) (A) (A)
                 (A) (A) (A) (A) (A) (A) (A) (A) (A) (A) (A) (A)
                 (A) (A) (A) (A) (A) (A) (A) (A) (A) (A) (A) (A)
                 (A) (A) (A) (A) (A) (A) (A) (A) (A) (A) (A) (A)
                 (A) (A) (A) (A) (A) (A) (A) (A) (A) (A) (A) (A)
                 (A) (A) (A) (A) (A) (A) (A) (A) (A) (A) (A) (A)
                 (A) (A) (A) (A) (A) (A) (A) (A) (A) (A) (A) (A)
                 (A) (A) (A) (A) (A) (A) (A) (A) (A) (A) (A) (A)
                 (A) (A) (A) (A) (A) (A) (A) (A) (A) (A) (A) (A)
                 (A) (A) (A) (A) (A) (A) (A) (A) (A) (A) (A) (A)
                 (A) (A) (A) (A) (A) (A) (A) (A) (A) (A) (A) (A)
                 (A) (A) (A) (A) (A) (A) (A) (A) (A) (A) (A) (A)
                 (A) (A) (A) (A) (A) (A) (A) (A) (A) (A) (A) (A)
                 (A) (A) (A) (A) (A) (A) (A) (A) (A) (A) (A) (A)
                 (A) (A) (A) (A) (A) (A) (A) (A) (A) (A) (A) (A)
                 (A) (A) (A) (A) (A) (A) (A) (A) (A) (A) (A) (A)
                 (A) (A) (A) (A) (A) (A) (A) (A) (A) (A) (A) (A)
                 (A) (A) (A) (A) (A) (A) (A) (A) (A) (A) (A) (A)
                 (A) (A) (A) (A) (A) (A) (A) (A) (A) (A) (A) (A)
                 (A) (A) (A) (A) (A) (A) (A) (A) (A) (A) (A) (A)
                 (A) (A) (A) (A) (A) (A) (A) (A) (A) (A) (A) (A)
                 (A) (A) (A) (A) (A) (A) (A) (A) (A) (A) (A) (A)
                 (A) (A) (A) (A) (A) (A) (A) (A) (A) (A) (A) (A)
                 (A) (A) (A) (A) (A) (A) (A) (A) (A) (A) (A) (A)
                 (A) (A) (A) (A) (A) (A) (A) (A) (A) (A) (A) (A)
                 (A) (A) (A) (A) (A) (A) (A) (A) (A) (A) (A) (A)
                 (A) (A) (A) (A) (A) (A) (A) (A) (A) (A) (A) (A)
                 (A) (A) (A) (A) (A) (A) (A) (A) (A) (A) (A) (A)
                 (A) (A) (A) (A) (A) (A) (A) (A) (A) (A) (A) (A)
                 (A) (A) (A) (A) (A) (A) (A) (A) (A) (A) (A) (A)
                 (A) (A) (A) (A) (A) (A) (A) (A) (A) (A) (A) (A)
                 (A) (A) (A) (A) (A) (A) (A) (A) (A) (A) (A) (A)
                 (A) (A) (A) (A) (A) (A) (A) (A) (A) (A) (A) (A)
                 (A) (A) (A) (A) (A) (A) (A) (A) (A) (A) (A) (A)
                 (A) (A) (A) (A) (A) (A) (A) (A) (A) (A) (A) (A)
                 (A) (A) (A) (A) (A) (A) (A) (A) (A) (A) (A) (A)
                 (A) (A) (A) (A) (A) (A) (A) (A) (A) (A) (A) (A)
                 (A) (A) (A) (A) (A) (A) (A) (A) (A) (A) (A) (A)
                 (A) (A) (A) (A) (A) (A) (A) (A) (A) (A) (A) (A)
                 (A) (A) (A) (A) (A) (A) (A) (A) (A) (A) (A) (A)
                 (A) (A) (A) (A) (A) (A) (A) (A) (A) (A) (A) (A)
                 (A) (A) (A) (A) (A) (A) (A) (A) (A) (A) (A) (A)
                 (A) (A) (A) (A) (A) (A) (A) (A) (A) (A) (A) (A)
                 (A) (A) (A) (A) (A) (A) (A) (A) (A) (A) (A) (A)
                 (A) (A) (A) (A) (A) (A) (A) (A) (A) (A) (A) (A)
                 (A) (A) (A) (A) (A) (A) (A) (A) (A) (A) (A) (A)
                 (A) (A) (A) (A) (A) (A) (A) (A) (A) (A) (A) (A)
                 (A) (A) (A) (A) (A) (A) (A) (A) (A) (A) (A) (A)
                 (A) (A) (A) (A) (A) (A) (A) (A) (A) (A) (A) (A)
                 (A) (A) (A) (A) (A) (A) (A) (A) (A) (A) (A) (A)
                 (A) (A) (A) (A) (A) (A) (A) (A) (A) (A) (A) (A)
                 (A) (A) (A) (A) (A) (A) (A) (A) (A) (A) (A) (A)
                 (A) (A) (A) (A) (A) (A) (A) (A) (A) (A) (A) (A)
                 (A) (A) (A) (A) (A) (A) (A) (A) (A) (A) (A) (A)
                 (A) (A) (A) (A) (A) (A) (A) (A) (A) (A) (A) (A)
                 (A) (A) (A) (A) (A) (A) (A) (A) (A) (A) (A) (A)
                 (A) (A) (A) (A) (A) (A) (A) (A) (A) (A) (A) (A)
                 (A) (A) (A) (A) (A) (A) (A) (A) (A) (A) (A) (A)
                 (A) (A) (A) (A) (A) (A) (A) (A) (A) (A) (A) (A)
                 (A) (A) (A) (A) (A) (A) (A) (A) (A) (A) (A) (A)
                 (A) (A) (A) (A) (A) (A) (A) (A) (A) (A) (A) (A)
                 (A) (A) (A) (A) (A) (A) (A) (A) (A) (A) (A) (A)
                 (A) (A) (A) (A) (A) (A) (A) (A) (A) (A) (A) (A)
                 (A) (A) (A) (A) (A) (A) (A) (A) (A) (A) (A) (A)
                 (A) (A) (A) (A) (A) (A) (A) (A) (A) (A) (A) (A)
                 (A) (A) (A) (A) (A) (A) (A) (A) (A) (A) (A) (A)
                 (A) (A) (A) (A) (A) (A) (A) (A) (A) (A) (A) (A)
                 (A) (A) (A) (A) (A) (A) (A) (A) (A) (A) (A) (A)
                 (A) (A) (A) (A) (A) (A) (A) (A) (A) (A) (A) (A)
                 (A) (A) (A) (A) (A) (A) (A) (A) (A) (A) (A) (A)
                 (A) (A) (A) (A) (A) (A) (A) (A) (A) (A) (A) (A)
                 (A) (A) (A) (A) (A) (A) (A) (A) (A) (A) (A) (A)
                 (A) (A) (A) (A) (A) (A) (A) (A) (A) (A) (A) (A)
                 (A) (A) (A) (A) (A) (A) (A) (A) (A) (A) (A) (A)
                 (A) (A) (A) (A) (A) (A) (A) (A) (A) (A) (A) (A)
                 (A) (A) (A) (A) (A) (A) (A) (A) (A) (A) (A) (A)
                 (A) (A) (A) (A) (A) (A) (A) (A) (A) (A) (A) (A)
                 (A) (A) (A) (A) (A) (A) (A) (A) (A) (A) (A) (A)
                 (A) (A) (A) (A) (A) (A) (A) (A) (A) (A) (A) (A)
                 (A) (A) (A) (A) (A) (A) (A) (A) (A) (A) (A) (A)
                 (A) (A) (A) (A) (A) (A) (A) (A) (A) (A) (A) (A)
                 (A) (A) (A) (A) (A) (A) (A) (A) (A) (A) (A) (A)
                 (A) (A) (A) (A) (A) (A) (A) (A) (A) (A) (A) (A)
                 (A) (A) (A) (A) (A) (A) (A) (A) (A) (A) (A) (A)
                 (A) (A) (A) (A) (A) (A) (A) (A) (A) (A) (A) (A)
                 (A) (A) (A) (A) (A) (A) (A) (A) (A) (A) (A) (A)
                 (A) (A) (A) (A) (A) (A) (A) (A) (A) (A) (A) (A)
                 (A) (A) (A) (A) (A) (A) (A) (A) (A) (A) (A) (A)
                 (A) (A) (A) (A) (A) (A) (A) (A) (A) (A) (A) (A)
                 (A) (A) (A) (A) (A) (A) (A) (A) (A) (A) (A) (A)
                 (A) (A) (A) (A) (A) (A) (A) (A) (A) (A) (A) (A)
                 (A) (A) (A) (A) (A) (A) (A) (A) (A) (A) (A) (A)
                 (A) (A) (A) (A) (A) (A) (A) (A) (A) (A) (A) (A)
                 (A) (A) (A) (A) (A) (A) (A) (A) (A) (A) (A) (A)
                 (A) (A) (A) (A) (A) (A) (A) (A) (A) (A) (A) (A)
                 (A) (A) (A) (A) (A) (A) (A) (A) (A) (A) (A) (A)
                 (A) (A) (A) (A) (A) (A) (A) (A) (A) (A) (A) (A)
                 (A) (A) (A) (A) (A) (A) (A) (A) (A) (A) (A) (A)
                 (A) (A) (A) (A) (A) (A) (A) (A) (A) (A) (A) (A)
                 (A) (A) (A) (A) (A) (A) (A) (A) (A) (A) (A) (A)
                 (A) (A) (A) (A) (A) (A) (A) (A) (A) (A) (A) (A)
                 (A) (A) (A) (A) (A) (A) (A) (A) (A) (A) (A) (A)
                 (A) (A) (A) (A) (A) (A) (A) (A) (A) (A) (A) (A)
                 (A) (A) (A) (A) (A) (A) (A) (A) (A) (A) (A) (A)
                 (A) (A) (A) (A) (A) (A) (A) (A) (A) (A) (A) (A)
                 (A) (A) (A) (A) (A) (A) (A) (A) (A) (A) (A) (A)
                 (A) (A) (A) (A) (A) (A) (A) (A) (A) (A) (A) (A)
                 (A) (A) (A) (A) (A) (A) (A) (A) (A) (A) (A) (A)
                 (A) (A) (A) (A) (A) (A) (A) (A) (A) (A) (A) (A)
                 (A) (A) (A) (A) (A) (A) (A) (A) (A) (A) (A) (A)
                 (A) (A) (A) (A) (A) (A) (A) (A) (A) (A) (A) (A)
                 (A) (A) (A) (A) (A) (A) (A) (A) (A) (A) (A) (A)
                 (A) (A) (A) (A) (A) (A) (A) (A) (A) (A) (A) (A)
                 (A) (A) (A) (A) (A) (A) (A) (A) (A) (A) (A) (A)
                 (A) (A) (A) (A) (A) (A) (A) (A) (A) (A) (A) (A)
                 (A) (A) (A) (A) (A) (A) (A) (A) (A) (A) (A) (A)
                 (A) (A) (A) (A) (A) (A) (A) (A) (A) (A) (A) (A)
                 (A) (A) (A) (A) (A) (A) (A) (A) (A) (A) (A) (A)
                 (A) (A) (A) (A) (A) (A) (A) (A) (A) (A) (A) (A)
                 (A) (A) (A) (A) (A) (A) (A) (A) (A) (A) (A) (A)
                 (A) (A) (A) (A) (A) (A) (A) (A) (A) (A) (A) (A)
                 (A) (A) (A) (A) (A) (A) (A) (A) (A) (A) (A) (A)
                 (A) (A) (A) (A) (A) (A) (A) (A) (A) (A) (A) (A)
                 (A) (A) (A) (A) (A) (A) (A) (A) (A) (A) (A) (A)
                 (A) (A) (A) (A)
 Beta  Orbitals:
       Occupied  (A) (A) (A) (A) (A) (A) (A) (A) (A) (A) (A) (A)
                 (A) (A) (A) (A) (A) (A) (A) (A) (A) (A) (A) (A)
                 (A) (A) (A) (A) (A) (A) (A) (A) (A) (A) (A) (A)
                 (A) (A) (A) (A) (A) (A) (A) (A) (A) (A) (A) (A)
                 (A) (A) (A) (A) (A) (A) (A) (A) (A) (A) (A) (A)
                 (A) (A) (A) (A) (A) (A) (A) (A) (A) (A) (A) (A)
                 (A) (A) (A) (A) (A) (A) (A) (A) (A) (A) (A) (A)
                 (A) (A) (A) (A) (A) (A) (A) (A) (A) (A) (A) (A)
                 (A) (A) (A) (A) (A) (A) (A) (A) (A) (A) (A) (A)
                 (A) (A) (A) (A) (A) (A) (A) (A) (A) (A) (A) (A)
                 (A) (A) (A) (A) (A) (A) (A) (A) (A) (A) (A) (A)
                 (A) (A) (A) (A) (A) (A) (A) (A) (A) (A) (A) (A)
                 (A) (A) (A) (A) (A) (A) (A) (A) (A) (A) (A) (A)
                 (A) (A) (A) (A) (A) (A) (A) (A) (A) (A) (A) (A)
                 (A) (A) (A) (A) (A) (A) (A) (A) (A) (A) (A) (A)
                 (A) (A) (A) (A) (A) (A) (A) (A) (A) (A) (A) (A)
                 (A) (A) (A) (A) (A) (A) (A) (A) (A) (A)
       Virtual   (A) (A) (A) (A) (A) (A) (A) (A) (A) (A) (A) (A)
                 (A) (A) (A) (A) (A) (A) (A) (A) (A) (A) (A) (A)
                 (A) (A) (A) (A) (A) (A) (A) (A) (A) (A) (A) (A)
                 (A) (A) (A) (A) (A) (A) (A) (A) (A) (A) (A) (A)
                 (A) (A) (A) (A) (A) (A) (A) (A) (A) (A) (A) (A)
                 (A) (A) (A) (A) (A) (A) (A) (A) (A) (A) (A) (A)
                 (A) (A) (A) (A) (A) (A) (A) (A) (A) (A) (A) (A)
                 (A) (A) (A) (A) (A) (A) (A) (A) (A) (A) (A) (A)
                 (A) (A) (A) (A) (A) (A) (A) (A) (A) (A) (A) (A)
                 (A) (A) (A) (A) (A) (A) (A) (A) (A) (A) (A) (A)
                 (A) (A) (A) (A) (A) (A) (A) (A) (A) (A) (A) (A)
                 (A) (A) (A) (A) (A) (A) (A) (A) (A) (A) (A) (A)
                 (A) (A) (A) (A) (A) (A) (A) (A) (A) (A) (A) (A)
                 (A) (A) (A) (A) (A) (A) (A) (A) (A) (A) (A) (A)
                 (A) (A) (A) (A) (A) (A) (A) (A) (A) (A) (A) (A)
                 (A) (A) (A) (A) (A) (A) (A) (A) (A) (A) (A) (A)
                 (A) (A) (A) (A) (A) (A) (A) (A) (A) (A) (A) (A)
                 (A) (A) (A) (A) (A) (A) (A) (A) (A) (A) (A) (A)
                 (A) (A) (A) (A) (A) (A) (A) (A) (A) (A) (A) (A)
                 (A) (A) (A) (A) (A) (A) (A) (A) (A) (A) (A) (A)
                 (A) (A) (A) (A) (A) (A) (A) (A) (A) (A) (A) (A)
                 (A) (A) (A) (A) (A) (A) (A) (A) (A) (A) (A) (A)
                 (A) (A) (A) (A) (A) (A) (A) (A) (A) (A) (A) (A)
                 (A) (A) (A) (A) (A) (A) (A) (A) (A) (A) (A) (A)
                 (A) (A) (A) (A) (A) (A) (A) (A) (A) (A) (A) (A)
                 (A) (A) (A) (A) (A) (A) (A) (A) (A) (A) (A) (A)
                 (A) (A) (A) (A) (A) (A) (A) (A) (A) (A) (A) (A)
                 (A) (A) (A) (A) (A) (A) (A) (A) (A) (A) (A) (A)
                 (A) (A) (A) (A) (A) (A) (A) (A) (A) (A) (A) (A)
                 (A) (A) (A) (A) (A) (A) (A) (A) (A) (A) (A) (A)
                 (A) (A) (A) (A) (A) (A) (A) (A) (A) (A) (A) (A)
                 (A) (A) (A) (A) (A) (A) (A) (A) (A) (A) (A) (A)
                 (A) (A) (A) (A) (A) (A) (A) (A) (A) (A) (A) (A)
                 (A) (A) (A) (A) (A) (A) (A) (A) (A) (A) (A) (A)
                 (A) (A) (A) (A) (A) (A) (A) (A) (A) (A) (A) (A)
                 (A) (A) (A) (A) (A) (A) (A) (A) (A) (A) (A) (A)
                 (A) (A) (A) (A) (A) (A) (A) (A) (A) (A) (A) (A)
                 (A) (A) (A) (A) (A) (A) (A) (A) (A) (A) (A) (A)
                 (A) (A) (A) (A) (A) (A) (A) (A) (A) (A) (A) (A)
                 (A) (A) (A) (A) (A) (A) (A) (A) (A) (A) (A) (A)
                 (A) (A) (A) (A) (A) (A) (A) (A) (A) (A) (A) (A)
                 (A) (A) (A) (A) (A) (A) (A) (A) (A) (A) (A) (A)
                 (A) (A) (A) (A) (A) (A) (A) (A) (A) (A) (A) (A)
                 (A) (A) (A) (A) (A) (A) (A) (A) (A) (A) (A) (A)
                 (A) (A) (A) (A) (A) (A) (A) (A) (A) (A) (A) (A)
                 (A) (A) (A) (A) (A) (A) (A) (A) (A) (A) (A) (A)
                 (A) (A) (A) (A) (A) (A) (A) (A) (A) (A) (A) (A)
                 (A) (A) (A) (A) (A) (A) (A) (A) (A) (A) (A) (A)
                 (A) (A) (A) (A) (A) (A) (A) (A) (A) (A) (A) (A)
                 (A) (A) (A) (A) (A) (A) (A) (A) (A) (A) (A) (A)
                 (A) (A) (A) (A) (A) (A) (A) (A) (A) (A) (A) (A)
                 (A) (A) (A) (A) (A) (A) (A) (A) (A) (A) (A) (A)
                 (A) (A) (A) (A) (A) (A) (A) (A) (A) (A) (A) (A)
                 (A) (A) (A) (A) (A) (A) (A) (A) (A) (A) (A) (A)
                 (A) (A) (A) (A) (A) (A) (A) (A) (A) (A) (A) (A)
                 (A) (A) (A) (A) (A) (A) (A) (A) (A) (A) (A) (A)
                 (A) (A) (A) (A) (A) (A) (A) (A) (A) (A) (A) (A)
                 (A) (A) (A) (A) (A) (A) (A) (A) (A) (A) (A) (A)
                 (A) (A) (A) (A) (A) (A) (A) (A) (A) (A) (A) (A)
                 (A) (A) (A) (A) (A) (A) (A) (A) (A) (A) (A) (A)
                 (A) (A) (A) (A) (A) (A) (A) (A) (A) (A) (A) (A)
                 (A) (A) (A) (A) (A) (A) (A) (A) (A) (A) (A) (A)
                 (A) (A) (A) (A) (A) (A) (A) (A) (A) (A) (A) (A)
                 (A) (A) (A) (A) (A) (A) (A) (A) (A) (A) (A) (A)
                 (A) (A) (A) (A) (A) (A) (A) (A) (A) (A) (A) (A)
                 (A) (A) (A) (A) (A) (A) (A) (A) (A) (A) (A) (A)
                 (A) (A) (A) (A) (A) (A) (A) (A) (A) (A) (A) (A)
                 (A) (A) (A) (A) (A) (A) (A) (A) (A) (A) (A) (A)
                 (A) (A) (A) (A) (A) (A) (A) (A) (A) (A) (A) (A)
                 (A) (A) (A) (A) (A) (A) (A) (A) (A) (A) (A) (A)
                 (A) (A) (A) (A) (A) (A) (A) (A) (A) (A) (A) (A)
                 (A) (A) (A) (A) (A) (A) (A) (A) (A) (A) (A) (A)
                 (A) (A) (A) (A) (A) (A) (A) (A) (A) (A) (A) (A)
                 (A) (A) (A) (A) (A) (A) (A) (A) (A) (A) (A) (A)
                 (A) (A) (A) (A) (A) (A) (A) (A) (A) (A) (A) (A)
                 (A) (A) (A) (A) (A) (A) (A) (A) (A) (A) (A) (A)
                 (A) (A) (A) (A) (A) (A) (A) (A) (A) (A) (A) (A)
                 (A) (A) (A) (A) (A) (A) (A) (A) (A) (A) (A) (A)
                 (A) (A) (A) (A) (A) (A) (A) (A) (A) (A) (A) (A)
                 (A) (A) (A) (A) (A) (A) (A) (A) (A) (A) (A) (A)
                 (A) (A) (A) (A) (A) (A) (A) (A) (A) (A) (A) (A)
                 (A) (A) (A) (A) (A) (A) (A) (A) (A) (A) (A) (A)
                 (A) (A) (A) (A) (A) (A) (A) (A) (A) (A) (A) (A)
                 (A) (A) (A) (A) (A) (A) (A) (A) (A) (A) (A) (A)
                 (A) (A) (A) (A) (A) (A) (A) (A) (A) (A) (A) (A)
                 (A) (A) (A) (A) (A) (A) (A) (A) (A) (A) (A) (A)
                 (A) (A) (A) (A) (A) (A) (A) (A) (A) (A) (A) (A)
                 (A) (A) (A) (A) (A) (A) (A) (A) (A) (A) (A) (A)
                 (A) (A) (A) (A) (A) (A) (A) (A) (A) (A) (A) (A)
                 (A) (A) (A) (A) (A) (A) (A) (A) (A) (A) (A) (A)
                 (A) (A) (A) (A) (A) (A) (A) (A) (A) (A) (A) (A)
                 (A) (A) (A) (A) (A) (A) (A) (A) (A) (A) (A) (A)
                 (A) (A) (A) (A) (A) (A) (A) (A) (A) (A) (A) (A)
                 (A) (A) (A) (A) (A) (A) (A) (A) (A) (A) (A) (A)
                 (A) (A) (A) (A) (A) (A) (A) (A) (A) (A) (A) (A)
                 (A) (A) (A) (A) (A) (A) (A) (A) (A) (A) (A) (A)
                 (A) (A) (A) (A) (A) (A) (A) (A) (A) (A) (A) (A)
                 (A) (A) (A) (A) (A) (A) (A) (A) (A) (A) (A) (A)
                 (A) (A) (A) (A) (A) (A) (A) (A) (A) (A) (A) (A)
                 (A) (A) (A) (A) (A) (A) (A) (A) (A) (A) (A) (A)
                 (A) (A) (A) (A) (A) (A) (A) (A) (A) (A) (A) (A)
                 (A) (A) (A) (A) (A) (A) (A) (A) (A) (A) (A) (A)
                 (A) (A) (A) (A) (A) (A) (A) (A) (A) (A) (A) (A)
                 (A) (A) (A) (A) (A) (A) (A) (A) (A) (A) (A) (A)
                 (A) (A) (A) (A) (A) (A) (A) (A) (A) (A) (A) (A)
                 (A) (A) (A) (A) (A) (A) (A) (A) (A) (A) (A) (A)
                 (A) (A) (A) (A) (A) (A) (A) (A) (A) (A) (A) (A)
                 (A) (A) (A) (A) (A) (A) (A) (A) (A) (A) (A) (A)
                 (A) (A) (A) (A) (A) (A) (A) (A) (A) (A) (A) (A)
                 (A) (A) (A) (A) (A) (A) (A) (A) (A) (A) (A) (A)
                 (A) (A) (A) (A) (A) (A) (A) (A) (A) (A) (A) (A)
                 (A) (A) (A) (A) (A) (A) (A) (A) (A) (A) (A) (A)
                 (A) (A) (A) (A) (A) (A) (A) (A) (A) (A) (A) (A)
                 (A) (A) (A) (A) (A) (A) (A) (A) (A) (A) (A) (A)
                 (A) (A) (A) (A) (A) (A) (A) (A) (A) (A) (A) (A)
                 (A) (A) (A) (A) (A) (A) (A) (A) (A) (A) (A) (A)
                 (A) (A) (A) (A) (A) (A) (A) (A) (A) (A) (A) (A)
                 (A) (A) (A) (A) (A) (A) (A) (A) (A) (A) (A) (A)
                 (A) (A) (A) (A) (A) (A) (A) (A) (A) (A) (A) (A)
                 (A) (A) (A) (A) (A) (A) (A) (A) (A) (A) (A) (A)
                 (A) (A) (A) (A) (A) (A) (A) (A) (A) (A) (A) (A)
                 (A) (A) (A) (A) (A) (A) (A) (A) (A) (A) (A) (A)
                 (A) (A) (A) (A) (A) (A) (A) (A) (A) (A) (A) (A)
                 (A) (A) (A) (A) (A) (A) (A) (A) (A) (A) (A) (A)
                 (A) (A) (A) (A) (A) (A) (A) (A) (A) (A) (A) (A)
                 (A) (A) (A) (A) (A) (A) (A) (A) (A) (A) (A) (A)
                 (A) (A) (A) (A) (A) (A) (A) (A) (A) (A) (A) (A)
                 (A) (A) (A) (A) (A) (A) (A) (A) (A) (A) (A) (A)
                 (A) (A) (A) (A) (A) (A) (A) (A) (A) (A) (A) (A)
                 (A) (A) (A) (A) (A) (A) (A) (A) (A) (A) (A) (A)
                 (A) (A) (A) (A) (A) (A) (A) (A) (A) (A) (A) (A)
                 (A) (A) (A) (A) (A) (A) (A) (A) (A) (A) (A) (A)
                 (A) (A) (A) (A) (A) (A) (A) (A) (A) (A) (A) (A)
                 (A) (A) (A) (A) (A) (A) (A) (A) (A) (A) (A) (A)
                 (A) (A) (A) (A) (A) (A) (A) (A) (A) (A) (A) (A)
                 (A) (A) (A) (A) (A) (A) (A) (A) (A) (A) (A) (A)
                 (A) (A) (A) (A) (A) (A) (A) (A) (A) (A) (A) (A)
                 (A) (A) (A) (A) (A) (A) (A) (A) (A) (A) (A) (A)
                 (A) (A) (A) (A) (A) (A) (A) (A) (A) (A) (A) (A)
                 (A) (A) (A) (A) (A) (A) (A) (A) (A) (A) (A) (A)
                 (A) (A) (A) (A) (A) (A) (A) (A) (A) (A) (A) (A)
                 (A) (A) (A) (A) (A) (A) (A) (A) (A) (A) (A) (A)
                 (A) (A) (A) (A) (A) (A) (A) (A) (A) (A) (A) (A)
                 (A) (A) (A) (A) (A) (A) (A) (A) (A) (A) (A) (A)
                 (A) (A) (A) (A) (A) (A) (A) (A) (A) (A) (A) (A)
                 (A) (A) (A) (A) (A) (A) (A) (A) (A)
 The electronic state is 6-A.
 Alpha  occ. eigenvalues -- -256.51755 -89.12441 -30.32704 -26.16192 -26.14370
 Alpha  occ. eigenvalues --  -26.13352 -19.33551 -19.32458 -19.24563 -19.23969
 Alpha  occ. eigenvalues --  -14.54939 -14.50027 -14.50005 -14.49750 -14.48527
 Alpha  occ. eigenvalues --  -14.48508 -10.41755 -10.41539 -10.38574 -10.36801
 Alpha  occ. eigenvalues --  -10.36356 -10.36168 -10.36135 -10.36012 -10.35947
 Alpha  occ. eigenvalues --  -10.35823 -10.35756 -10.35627 -10.34183 -10.33550
 Alpha  occ. eigenvalues --  -10.33065 -10.32828 -10.32828 -10.32711 -10.32650
 Alpha  occ. eigenvalues --  -10.32631 -10.32595 -10.32444 -10.32365 -10.32358
 Alpha  occ. eigenvalues --  -10.32320 -10.32287 -10.32285 -10.32171 -10.31725
 Alpha  occ. eigenvalues --  -10.31524 -10.31474 -10.31343 -10.31245 -10.30605
 Alpha  occ. eigenvalues --  -10.30545 -10.30525 -10.30252 -10.30248 -10.29641
 Alpha  occ. eigenvalues --  -10.29153 -10.29050  -8.10460  -6.04072  -6.03797
 Alpha  occ. eigenvalues --   -6.03336  -3.72300  -2.51922  -2.46542  -2.45982
 Alpha  occ. eigenvalues --   -1.25936  -1.24932  -1.15646  -1.11133  -1.10145
 Alpha  occ. eigenvalues --   -1.09232  -1.08138  -1.08049  -1.07016  -1.01583
 Alpha  occ. eigenvalues --   -0.94626  -0.94481  -0.94045  -0.93779  -0.93408
 Alpha  occ. eigenvalues --   -0.93095  -0.91779  -0.91400  -0.89950  -0.88860
 Alpha  occ. eigenvalues --   -0.88283  -0.87442  -0.86629  -0.86432  -0.86171
 Alpha  occ. eigenvalues --   -0.83880  -0.82188  -0.81962  -0.81602  -0.81549
 Alpha  occ. eigenvalues --   -0.79571  -0.78728  -0.78014  -0.76554  -0.76367
 Alpha  occ. eigenvalues --   -0.76286  -0.75097  -0.74900  -0.74264  -0.73667
 Alpha  occ. eigenvalues --   -0.73558  -0.71898  -0.70664  -0.69914  -0.68853
 Alpha  occ. eigenvalues --   -0.66430  -0.66046  -0.65492  -0.65081  -0.64672
 Alpha  occ. eigenvalues --   -0.63262  -0.62569  -0.62172  -0.61635  -0.60675
 Alpha  occ. eigenvalues --   -0.60183  -0.59556  -0.59253  -0.59157  -0.58917
 Alpha  occ. eigenvalues --   -0.58576  -0.58417  -0.57577  -0.57337  -0.56486
 Alpha  occ. eigenvalues --   -0.56227  -0.56105  -0.55678  -0.55388  -0.55182
 Alpha  occ. eigenvalues --   -0.54960  -0.54729  -0.54580  -0.54468  -0.54240
 Alpha  occ. eigenvalues --   -0.54076  -0.53907  -0.53718  -0.53609  -0.53227
 Alpha  occ. eigenvalues --   -0.53092  -0.52735  -0.52568  -0.52304  -0.52262
 Alpha  occ. eigenvalues --   -0.51965  -0.51863  -0.51750  -0.51481  -0.51167
 Alpha  occ. eigenvalues --   -0.51077  -0.50693  -0.50429  -0.50343  -0.50145
 Alpha  occ. eigenvalues --   -0.49833  -0.49652  -0.49330  -0.49248  -0.49067
 Alpha  occ. eigenvalues --   -0.48837  -0.48493  -0.48303  -0.47833  -0.47754
 Alpha  occ. eigenvalues --   -0.47692  -0.47449  -0.47283  -0.46937  -0.46764
 Alpha  occ. eigenvalues --   -0.46731  -0.45974  -0.45937  -0.45775  -0.45225
 Alpha  occ. eigenvalues --   -0.45160  -0.45091  -0.44595  -0.44413  -0.43899
 Alpha  occ. eigenvalues --   -0.43489  -0.43313  -0.43193  -0.42673  -0.40576
 Alpha  occ. eigenvalues --   -0.40038  -0.39453  -0.38920  -0.38768  -0.37398
 Alpha  occ. eigenvalues --   -0.36043  -0.35460  -0.35398  -0.34984  -0.34262
 Alpha  occ. eigenvalues --   -0.33820  -0.33629  -0.30868  -0.30691  -0.29970
 Alpha  occ. eigenvalues --   -0.29307  -0.27754
 Alpha virt. eigenvalues --   -0.19258  -0.17880  -0.17707  -0.10941  -0.08002
 Alpha virt. eigenvalues --   -0.07867  -0.07137  -0.06940  -0.06489  -0.06339
 Alpha virt. eigenvalues --   -0.06051  -0.05386  -0.04803  -0.04430  -0.03964
 Alpha virt. eigenvalues --   -0.03609  -0.03394  -0.03023  -0.02653  -0.02507
 Alpha virt. eigenvalues --   -0.02345  -0.02252  -0.02012  -0.01505  -0.01256
 Alpha virt. eigenvalues --   -0.01007  -0.00847  -0.00303  -0.00143   0.00285
 Alpha virt. eigenvalues --    0.00524   0.00633   0.01163   0.01279   0.01461
 Alpha virt. eigenvalues --    0.02068   0.02224   0.02340   0.02545   0.02781
 Alpha virt. eigenvalues --    0.03023   0.03158   0.03522   0.03654   0.03813
 Alpha virt. eigenvalues --    0.04030   0.04147   0.04221   0.04399   0.04759
 Alpha virt. eigenvalues --    0.04942   0.05087   0.05326   0.05676   0.05790
 Alpha virt. eigenvalues --    0.05834   0.06159   0.06274   0.06366   0.06461
 Alpha virt. eigenvalues --    0.06680   0.06777   0.07100   0.07136   0.07292
 Alpha virt. eigenvalues --    0.07762   0.07982   0.08061   0.08266   0.08398
 Alpha virt. eigenvalues --    0.08744   0.08850   0.09062   0.09266   0.09755
 Alpha virt. eigenvalues --    0.09893   0.10021   0.10115   0.10444   0.10768
 Alpha virt. eigenvalues --    0.11024   0.11182   0.11540   0.11653   0.11748
 Alpha virt. eigenvalues --    0.11924   0.12147   0.12422   0.12518   0.12755
 Alpha virt. eigenvalues --    0.13065   0.13310   0.13401   0.13619   0.13714
 Alpha virt. eigenvalues --    0.13869   0.14068   0.14390   0.14508   0.14565
 Alpha virt. eigenvalues --    0.14923   0.15086   0.15275   0.15423   0.15639
 Alpha virt. eigenvalues --    0.15755   0.15958   0.16332   0.16392   0.16552
 Alpha virt. eigenvalues --    0.16752   0.17116   0.17259   0.17468   0.17833
 Alpha virt. eigenvalues --    0.17961   0.18052   0.18300   0.18384   0.18574
 Alpha virt. eigenvalues --    0.18826   0.18932   0.19151   0.19357   0.19652
 Alpha virt. eigenvalues --    0.19977   0.20030   0.20596   0.20717   0.20846
 Alpha virt. eigenvalues --    0.21041   0.21391   0.21761   0.22036   0.22084
 Alpha virt. eigenvalues --    0.22363   0.22566   0.22792   0.23021   0.23185
 Alpha virt. eigenvalues --    0.23350   0.23450   0.23637   0.23903   0.23976
 Alpha virt. eigenvalues --    0.24286   0.24513   0.24827   0.25102   0.25187
 Alpha virt. eigenvalues --    0.25317   0.25488   0.25757   0.25904   0.26325
 Alpha virt. eigenvalues --    0.26586   0.26817   0.27057   0.27185   0.27606
 Alpha virt. eigenvalues --    0.27820   0.27944   0.28256   0.28488   0.28570
 Alpha virt. eigenvalues --    0.28937   0.29163   0.29380   0.29466   0.29872
 Alpha virt. eigenvalues --    0.29991   0.30075   0.30367   0.30568   0.30689
 Alpha virt. eigenvalues --    0.30779   0.30973   0.31257   0.31381   0.31581
 Alpha virt. eigenvalues --    0.31632   0.32287   0.32387   0.32590   0.32786
 Alpha virt. eigenvalues --    0.32883   0.32999   0.33266   0.33373   0.33701
 Alpha virt. eigenvalues --    0.33815   0.34086   0.34349   0.34608   0.34763
 Alpha virt. eigenvalues --    0.34845   0.34981   0.35204   0.35284   0.35566
 Alpha virt. eigenvalues --    0.35609   0.35754   0.35925   0.36328   0.36380
 Alpha virt. eigenvalues --    0.36538   0.36790   0.36946   0.37046   0.37331
 Alpha virt. eigenvalues --    0.37560   0.37668   0.37688   0.37972   0.38103
 Alpha virt. eigenvalues --    0.38269   0.38412   0.38460   0.38664   0.38780
 Alpha virt. eigenvalues --    0.38805   0.39107   0.39287   0.39360   0.39516
 Alpha virt. eigenvalues --    0.39779   0.39812   0.40085   0.40227   0.40389
 Alpha virt. eigenvalues --    0.40565   0.40654   0.40677   0.40806   0.41062
 Alpha virt. eigenvalues --    0.41194   0.41334   0.41582   0.41770   0.42133
 Alpha virt. eigenvalues --    0.42229   0.42379   0.42688   0.42873   0.43042
 Alpha virt. eigenvalues --    0.43153   0.43308   0.43430   0.43664   0.43759
 Alpha virt. eigenvalues --    0.44054   0.44184   0.44288   0.44536   0.44765
 Alpha virt. eigenvalues --    0.44914   0.45119   0.45206   0.45395   0.45468
 Alpha virt. eigenvalues --    0.45938   0.46107   0.46335   0.46486   0.46543
 Alpha virt. eigenvalues --    0.46985   0.47095   0.47290   0.47481   0.47706
 Alpha virt. eigenvalues --    0.47967   0.48214   0.48344   0.48522   0.48858
 Alpha virt. eigenvalues --    0.49056   0.49296   0.49432   0.49765   0.49917
 Alpha virt. eigenvalues --    0.50118   0.50229   0.50636   0.50720   0.51007
 Alpha virt. eigenvalues --    0.51159   0.51263   0.51660   0.51690   0.51987
 Alpha virt. eigenvalues --    0.52120   0.52521   0.52675   0.52996   0.53196
 Alpha virt. eigenvalues --    0.53513   0.53722   0.53935   0.54160   0.54346
 Alpha virt. eigenvalues --    0.54621   0.54765   0.55083   0.55205   0.55538
 Alpha virt. eigenvalues --    0.56022   0.56028   0.56313   0.56678   0.56784
 Alpha virt. eigenvalues --    0.57123   0.57335   0.57546   0.57765   0.57959
 Alpha virt. eigenvalues --    0.58133   0.58376   0.58569   0.58865   0.59189
 Alpha virt. eigenvalues --    0.59606   0.59943   0.60037   0.60128   0.60452
 Alpha virt. eigenvalues --    0.60811   0.61053   0.61228   0.61487   0.61627
 Alpha virt. eigenvalues --    0.61880   0.62080   0.62632   0.62818   0.63421
 Alpha virt. eigenvalues --    0.63635   0.63851   0.64299   0.64558   0.64832
 Alpha virt. eigenvalues --    0.65015   0.65472   0.65555   0.65971   0.66077
 Alpha virt. eigenvalues --    0.66227   0.66688   0.66869   0.67278   0.67825
 Alpha virt. eigenvalues --    0.67993   0.68175   0.68377   0.68926   0.69109
 Alpha virt. eigenvalues --    0.69224   0.69395   0.69869   0.70196   0.70375
 Alpha virt. eigenvalues --    0.70793   0.71312   0.71847   0.72289   0.72473
 Alpha virt. eigenvalues --    0.72572   0.72796   0.73038   0.73241   0.73868
 Alpha virt. eigenvalues --    0.73900   0.74318   0.74460   0.74585   0.74994
 Alpha virt. eigenvalues --    0.75170   0.75480   0.76097   0.76207   0.76583
 Alpha virt. eigenvalues --    0.76789   0.77182   0.77269   0.77313   0.77813
 Alpha virt. eigenvalues --    0.78166   0.78313   0.78876   0.79420   0.79546
 Alpha virt. eigenvalues --    0.79633   0.80111   0.80357   0.80575   0.80948
 Alpha virt. eigenvalues --    0.81082   0.81545   0.81646   0.82162   0.82340
 Alpha virt. eigenvalues --    0.82532   0.82842   0.82976   0.83097   0.83733
 Alpha virt. eigenvalues --    0.84098   0.84178   0.84495   0.84720   0.84954
 Alpha virt. eigenvalues --    0.85145   0.85571   0.85761   0.85974   0.86186
 Alpha virt. eigenvalues --    0.86390   0.86837   0.87028   0.87354   0.87448
 Alpha virt. eigenvalues --    0.87668   0.87838   0.88013   0.88505   0.88838
 Alpha virt. eigenvalues --    0.88895   0.89229   0.89805   0.90152   0.90360
 Alpha virt. eigenvalues --    0.90565   0.90832   0.90979   0.91064   0.91464
 Alpha virt. eigenvalues --    0.91484   0.91945   0.92398   0.92564   0.92847
 Alpha virt. eigenvalues --    0.93166   0.93355   0.93552   0.93941   0.94000
 Alpha virt. eigenvalues --    0.94124   0.94400   0.94557   0.95109   0.95273
 Alpha virt. eigenvalues --    0.95394   0.96034   0.96122   0.96400   0.96638
 Alpha virt. eigenvalues --    0.96885   0.97068   0.97391   0.97558   0.97983
 Alpha virt. eigenvalues --    0.98387   0.98632   0.98928   0.99127   0.99386
 Alpha virt. eigenvalues --    0.99745   0.99872   1.00384   1.00566   1.00856
 Alpha virt. eigenvalues --    1.01074   1.01372   1.02152   1.02649   1.02888
 Alpha virt. eigenvalues --    1.03191   1.03382   1.03574   1.04032   1.04160
 Alpha virt. eigenvalues --    1.04362   1.04704   1.05027   1.05330   1.05658
 Alpha virt. eigenvalues --    1.06193   1.06239   1.06454   1.06989   1.07252
 Alpha virt. eigenvalues --    1.07524   1.07713   1.08590   1.08788   1.08933
 Alpha virt. eigenvalues --    1.09652   1.10065   1.10188   1.10383   1.10583
 Alpha virt. eigenvalues --    1.11161   1.11406   1.11569   1.12249   1.12672
 Alpha virt. eigenvalues --    1.12959   1.13098   1.13252   1.14049   1.14678
 Alpha virt. eigenvalues --    1.14961   1.15312   1.15582   1.15815   1.16319
 Alpha virt. eigenvalues --    1.16390   1.16553   1.17278   1.17724   1.18040
 Alpha virt. eigenvalues --    1.18498   1.18956   1.19252   1.19511   1.19624
 Alpha virt. eigenvalues --    1.20035   1.20223   1.20531   1.20892   1.21401
 Alpha virt. eigenvalues --    1.21555   1.21769   1.21932   1.22331   1.23062
 Alpha virt. eigenvalues --    1.23315   1.23468   1.23945   1.24226   1.24915
 Alpha virt. eigenvalues --    1.25173   1.25544   1.25805   1.25991   1.26288
 Alpha virt. eigenvalues --    1.26601   1.27154   1.27397   1.27751   1.28139
 Alpha virt. eigenvalues --    1.28356   1.28954   1.29093   1.29432   1.30312
 Alpha virt. eigenvalues --    1.30533   1.30820   1.31691   1.31789   1.32205
 Alpha virt. eigenvalues --    1.32783   1.33411   1.33826   1.34459   1.34750
 Alpha virt. eigenvalues --    1.35057   1.35612   1.35898   1.36039   1.36385
 Alpha virt. eigenvalues --    1.36849   1.37676   1.37799   1.38388   1.38778
 Alpha virt. eigenvalues --    1.38911   1.39118   1.39402   1.39591   1.39943
 Alpha virt. eigenvalues --    1.40145   1.40519   1.40980   1.41389   1.41690
 Alpha virt. eigenvalues --    1.41999   1.42387   1.42597   1.43032   1.43318
 Alpha virt. eigenvalues --    1.43482   1.43511   1.43949   1.44248   1.44420
 Alpha virt. eigenvalues --    1.44705   1.44821   1.45309   1.45435   1.45509
 Alpha virt. eigenvalues --    1.45873   1.45996   1.46360   1.46728   1.46898
 Alpha virt. eigenvalues --    1.46982   1.47293   1.47568   1.47781   1.47873
 Alpha virt. eigenvalues --    1.48111   1.48278   1.48378   1.48571   1.48816
 Alpha virt. eigenvalues --    1.49245   1.49432   1.49483   1.49660   1.50131
 Alpha virt. eigenvalues --    1.50241   1.50314   1.50524   1.50692   1.51030
 Alpha virt. eigenvalues --    1.51209   1.51473   1.51820   1.51882   1.52497
 Alpha virt. eigenvalues --    1.52599   1.52953   1.53038   1.53385   1.53575
 Alpha virt. eigenvalues --    1.53656   1.54083   1.54392   1.54684   1.54801
 Alpha virt. eigenvalues --    1.55258   1.55515   1.55633   1.56075   1.56302
 Alpha virt. eigenvalues --    1.56678   1.56956   1.57064   1.57461   1.57528
 Alpha virt. eigenvalues --    1.57695   1.58044   1.58213   1.58577   1.59006
 Alpha virt. eigenvalues --    1.59421   1.59484   1.59663   1.60218   1.60404
 Alpha virt. eigenvalues --    1.60636   1.60960   1.61033   1.61213   1.61778
 Alpha virt. eigenvalues --    1.61921   1.62220   1.62427   1.62862   1.63310
 Alpha virt. eigenvalues --    1.63484   1.63736   1.64010   1.64338   1.64472
 Alpha virt. eigenvalues --    1.64722   1.65023   1.65304   1.65578   1.65878
 Alpha virt. eigenvalues --    1.66377   1.66513   1.66625   1.67201   1.67391
 Alpha virt. eigenvalues --    1.68218   1.68411   1.68827   1.68949   1.69320
 Alpha virt. eigenvalues --    1.69554   1.69946   1.70128   1.70894   1.71034
 Alpha virt. eigenvalues --    1.71743   1.72133   1.72543   1.72798   1.73051
 Alpha virt. eigenvalues --    1.73555   1.73832   1.74181   1.74468   1.74992
 Alpha virt. eigenvalues --    1.75273   1.75345   1.75476   1.76146   1.76502
 Alpha virt. eigenvalues --    1.76920   1.77410   1.77821   1.78048   1.78073
 Alpha virt. eigenvalues --    1.78503   1.79365   1.79426   1.79916   1.80057
 Alpha virt. eigenvalues --    1.80678   1.80800   1.81201   1.81313   1.81643
 Alpha virt. eigenvalues --    1.81955   1.82119   1.82738   1.82956   1.83419
 Alpha virt. eigenvalues --    1.83864   1.84158   1.84462   1.84852   1.85069
 Alpha virt. eigenvalues --    1.85210   1.85641   1.85943   1.86463   1.86685
 Alpha virt. eigenvalues --    1.87319   1.87635   1.87885   1.88142   1.88875
 Alpha virt. eigenvalues --    1.88989   1.89243   1.89399   1.89707   1.90063
 Alpha virt. eigenvalues --    1.90330   1.90530   1.90924   1.91650   1.91775
 Alpha virt. eigenvalues --    1.91820   1.91950   1.92613   1.92801   1.93064
 Alpha virt. eigenvalues --    1.93562   1.93624   1.93914   1.94789   1.95332
 Alpha virt. eigenvalues --    1.95549   1.95973   1.96686   1.96850   1.97206
 Alpha virt. eigenvalues --    1.97561   1.97764   1.98094   1.98795   1.98948
 Alpha virt. eigenvalues --    1.99370   1.99402   1.99870   2.00300   2.00826
 Alpha virt. eigenvalues --    2.01539   2.01731   2.02048   2.02431   2.02694
 Alpha virt. eigenvalues --    2.02982   2.03242   2.03473   2.03626   2.04194
 Alpha virt. eigenvalues --    2.04559   2.04639   2.04931   2.05491   2.05860
 Alpha virt. eigenvalues --    2.06147   2.06560   2.06883   2.07116   2.07417
 Alpha virt. eigenvalues --    2.07545   2.07687   2.07997   2.08232   2.08865
 Alpha virt. eigenvalues --    2.09062   2.09535   2.09596   2.10048   2.10278
 Alpha virt. eigenvalues --    2.10708   2.11020   2.11273   2.11570   2.11926
 Alpha virt. eigenvalues --    2.12345   2.12575   2.12888   2.13088   2.13455
 Alpha virt. eigenvalues --    2.13879   2.14229   2.14391   2.14966   2.15293
 Alpha virt. eigenvalues --    2.15399   2.15687   2.16137   2.16577   2.16919
 Alpha virt. eigenvalues --    2.17610   2.17697   2.17997   2.18073   2.18331
 Alpha virt. eigenvalues --    2.18666   2.19136   2.19577   2.19808   2.20130
 Alpha virt. eigenvalues --    2.20383   2.20973   2.21636   2.21977   2.22394
 Alpha virt. eigenvalues --    2.22511   2.22945   2.23622   2.23859   2.23956
 Alpha virt. eigenvalues --    2.24427   2.24699   2.25107   2.25454   2.25959
 Alpha virt. eigenvalues --    2.26263   2.26361   2.26677   2.27228   2.27966
 Alpha virt. eigenvalues --    2.28064   2.28337   2.28851   2.28972   2.29477
 Alpha virt. eigenvalues --    2.29631   2.29900   2.29995   2.30623   2.30901
 Alpha virt. eigenvalues --    2.31542   2.31654   2.32142   2.32403   2.32711
 Alpha virt. eigenvalues --    2.33117   2.33299   2.33530   2.34319   2.34375
 Alpha virt. eigenvalues --    2.34676   2.35047   2.35552   2.35807   2.36123
 Alpha virt. eigenvalues --    2.36221   2.36761   2.36889   2.37423   2.37568
 Alpha virt. eigenvalues --    2.38026   2.38089   2.38300   2.38651   2.39029
 Alpha virt. eigenvalues --    2.39790   2.39925   2.40217   2.40878   2.41163
 Alpha virt. eigenvalues --    2.41461   2.41849   2.42112   2.42639   2.42715
 Alpha virt. eigenvalues --    2.42899   2.43492   2.43557   2.44165   2.44852
 Alpha virt. eigenvalues --    2.45112   2.45780   2.46092   2.46360   2.46744
 Alpha virt. eigenvalues --    2.47008   2.47507   2.47770   2.48179   2.48588
 Alpha virt. eigenvalues --    2.48849   2.49036   2.49252   2.49738   2.50205
 Alpha virt. eigenvalues --    2.50293   2.50549   2.51127   2.51415   2.51690
 Alpha virt. eigenvalues --    2.51890   2.52210   2.52318   2.52388   2.52567
 Alpha virt. eigenvalues --    2.53091   2.53355   2.53683   2.54065   2.54215
 Alpha virt. eigenvalues --    2.54602   2.54681   2.54805   2.55229   2.55396
 Alpha virt. eigenvalues --    2.55622   2.55978   2.56011   2.56385   2.56663
 Alpha virt. eigenvalues --    2.57010   2.57204   2.57530   2.57887   2.58377
 Alpha virt. eigenvalues --    2.58516   2.59098   2.59457   2.59792   2.59972
 Alpha virt. eigenvalues --    2.60224   2.60425   2.60827   2.61946   2.62179
 Alpha virt. eigenvalues --    2.62286   2.62571   2.62944   2.63396   2.63535
 Alpha virt. eigenvalues --    2.63826   2.64279   2.64736   2.64776   2.64943
 Alpha virt. eigenvalues --    2.65210   2.65474   2.66241   2.66550   2.66915
 Alpha virt. eigenvalues --    2.66985   2.67348   2.67701   2.67851   2.68183
 Alpha virt. eigenvalues --    2.68502   2.68741   2.69170   2.69348   2.69601
 Alpha virt. eigenvalues --    2.69831   2.70362   2.70458   2.71176   2.71499
 Alpha virt. eigenvalues --    2.71670   2.72114   2.72248   2.72626   2.73122
 Alpha virt. eigenvalues --    2.73381   2.73839   2.74018   2.74309   2.74621
 Alpha virt. eigenvalues --    2.75008   2.75326   2.75363   2.75821   2.76162
 Alpha virt. eigenvalues --    2.76430   2.76804   2.76926   2.77101   2.77714
 Alpha virt. eigenvalues --    2.77900   2.78146   2.78417   2.78833   2.79241
 Alpha virt. eigenvalues --    2.79598   2.79694   2.80226   2.80555   2.80833
 Alpha virt. eigenvalues --    2.81523   2.81861   2.82071   2.82266   2.82808
 Alpha virt. eigenvalues --    2.83146   2.83652   2.83778   2.84293   2.84446
 Alpha virt. eigenvalues --    2.84518   2.84866   2.85539   2.85914   2.85983
 Alpha virt. eigenvalues --    2.86239   2.86853   2.87078   2.87208   2.87282
 Alpha virt. eigenvalues --    2.87719   2.87898   2.88151   2.88397   2.88797
 Alpha virt. eigenvalues --    2.89091   2.89771   2.89904   2.90193   2.90254
 Alpha virt. eigenvalues --    2.90794   2.90944   2.91404   2.91871   2.91912
 Alpha virt. eigenvalues --    2.92304   2.92762   2.92826   2.93334   2.93363
 Alpha virt. eigenvalues --    2.93793   2.94264   2.94676   2.95103   2.95257
 Alpha virt. eigenvalues --    2.95481   2.95570   2.96283   2.96401   2.96902
 Alpha virt. eigenvalues --    2.97042   2.97256   2.97663   2.97913   2.98485
 Alpha virt. eigenvalues --    2.98612   2.99015   2.99275   2.99544   2.99653
 Alpha virt. eigenvalues --    2.99991   3.00206   3.00273   3.00766   3.00991
 Alpha virt. eigenvalues --    3.01459   3.01746   3.01859   3.01929   3.02354
 Alpha virt. eigenvalues --    3.02589   3.02934   3.03079   3.03261   3.03793
 Alpha virt. eigenvalues --    3.03966   3.04137   3.04369   3.04502   3.04783
 Alpha virt. eigenvalues --    3.04799   3.05190   3.05540   3.05759   3.05966
 Alpha virt. eigenvalues --    3.06211   3.06336   3.06778   3.07106   3.07405
 Alpha virt. eigenvalues --    3.07516   3.07845   3.07968   3.08076   3.08217
 Alpha virt. eigenvalues --    3.08354   3.08940   3.09436   3.09794   3.09949
 Alpha virt. eigenvalues --    3.10341   3.10669   3.10974   3.11217   3.11385
 Alpha virt. eigenvalues --    3.11730   3.12179   3.12430   3.12623   3.12969
 Alpha virt. eigenvalues --    3.13402   3.13466   3.13810   3.14157   3.14618
 Alpha virt. eigenvalues --    3.14672   3.14981   3.15133   3.15445   3.15541
 Alpha virt. eigenvalues --    3.15742   3.16172   3.16521   3.16698   3.16875
 Alpha virt. eigenvalues --    3.17097   3.17500   3.17601   3.17887   3.18211
 Alpha virt. eigenvalues --    3.18469   3.18915   3.19008   3.19231   3.19634
 Alpha virt. eigenvalues --    3.19805   3.20026   3.20228   3.20737   3.21123
 Alpha virt. eigenvalues --    3.21522   3.21742   3.21817   3.21901   3.22041
 Alpha virt. eigenvalues --    3.22414   3.22536   3.22855   3.23035   3.23436
 Alpha virt. eigenvalues --    3.23703   3.24230   3.24392   3.24477   3.24912
 Alpha virt. eigenvalues --    3.24998   3.25309   3.25808   3.26081   3.26148
 Alpha virt. eigenvalues --    3.26351   3.26674   3.26680   3.27002   3.27300
 Alpha virt. eigenvalues --    3.27485   3.27541   3.27826   3.27999   3.28123
 Alpha virt. eigenvalues --    3.28513   3.28837   3.28895   3.29329   3.29439
 Alpha virt. eigenvalues --    3.29863   3.30155   3.30236   3.30274   3.30734
 Alpha virt. eigenvalues --    3.30836   3.31133   3.31405   3.31659   3.31787
 Alpha virt. eigenvalues --    3.32033   3.32448   3.32637   3.32938   3.33261
 Alpha virt. eigenvalues --    3.33658   3.33680   3.34034   3.34282   3.34479
 Alpha virt. eigenvalues --    3.34843   3.35035   3.35377   3.35643   3.36330
 Alpha virt. eigenvalues --    3.36667   3.36698   3.36891   3.37171   3.37434
 Alpha virt. eigenvalues --    3.37962   3.38134   3.38156   3.38585   3.38962
 Alpha virt. eigenvalues --    3.39096   3.39483   3.39560   3.40126   3.40410
 Alpha virt. eigenvalues --    3.40671   3.40946   3.41276   3.41622   3.42164
 Alpha virt. eigenvalues --    3.42373   3.42953   3.43066   3.43390   3.43532
 Alpha virt. eigenvalues --    3.43855   3.43933   3.44712   3.44993   3.45121
 Alpha virt. eigenvalues --    3.45565   3.45831   3.46176   3.46586   3.46878
 Alpha virt. eigenvalues --    3.47274   3.47626   3.48205   3.48300   3.48654
 Alpha virt. eigenvalues --    3.49047   3.49342   3.49650   3.50008   3.50171
 Alpha virt. eigenvalues --    3.50358   3.50655   3.51216   3.51449   3.51762
 Alpha virt. eigenvalues --    3.52049   3.52458   3.52792   3.53499   3.53669
 Alpha virt. eigenvalues --    3.53796   3.54175   3.54427   3.54544   3.54787
 Alpha virt. eigenvalues --    3.55126   3.55665   3.56005   3.56178   3.56631
 Alpha virt. eigenvalues --    3.56981   3.57354   3.58047   3.58279   3.58677
 Alpha virt. eigenvalues --    3.58805   3.58885   3.59984   3.60179   3.60439
 Alpha virt. eigenvalues --    3.60941   3.61114   3.61274   3.61692   3.62050
 Alpha virt. eigenvalues --    3.62343   3.62591   3.62827   3.63102   3.63381
 Alpha virt. eigenvalues --    3.63926   3.64160   3.64498   3.64959   3.65096
 Alpha virt. eigenvalues --    3.65550   3.65913   3.66421   3.66704   3.66909
 Alpha virt. eigenvalues --    3.67296   3.67964   3.68632   3.69175   3.69396
 Alpha virt. eigenvalues --    3.69817   3.70149   3.70755   3.70832   3.72061
 Alpha virt. eigenvalues --    3.72558   3.72660   3.72956   3.73641   3.73782
 Alpha virt. eigenvalues --    3.74600   3.75143   3.75725   3.76489   3.76699
 Alpha virt. eigenvalues --    3.76972   3.77306   3.77591   3.78282   3.78619
 Alpha virt. eigenvalues --    3.78865   3.79012   3.79602   3.79975   3.80432
 Alpha virt. eigenvalues --    3.80668   3.80789   3.81317   3.81531   3.82414
 Alpha virt. eigenvalues --    3.82889   3.83074   3.83525   3.84287   3.84757
 Alpha virt. eigenvalues --    3.85220   3.85970   3.86236   3.86466   3.86832
 Alpha virt. eigenvalues --    3.87471   3.87823   3.88299   3.88616   3.88931
 Alpha virt. eigenvalues --    3.89529   3.90203   3.90417   3.90792   3.91205
 Alpha virt. eigenvalues --    3.91823   3.92224   3.92712   3.93421   3.93850
 Alpha virt. eigenvalues --    3.93924   3.94095   3.94351   3.95273   3.95761
 Alpha virt. eigenvalues --    3.96135   3.96405   3.97228   3.97696   3.98087
 Alpha virt. eigenvalues --    3.98207   3.98775   3.99421   4.00144   4.00249
 Alpha virt. eigenvalues --    4.01183   4.01748   4.02508   4.03004   4.03366
 Alpha virt. eigenvalues --    4.03826   4.04156   4.04619   4.05157   4.05550
 Alpha virt. eigenvalues --    4.06037   4.06621   4.07906   4.08229   4.08491
 Alpha virt. eigenvalues --    4.09200   4.09310   4.10316   4.10634   4.11064
 Alpha virt. eigenvalues --    4.11519   4.12199   4.12574   4.12649   4.13474
 Alpha virt. eigenvalues --    4.13889   4.14885   4.15129   4.15570   4.16173
 Alpha virt. eigenvalues --    4.16209   4.16491   4.17622   4.18256   4.18752
 Alpha virt. eigenvalues --    4.19366   4.19537   4.20328   4.20781   4.21475
 Alpha virt. eigenvalues --    4.21832   4.22131   4.22687   4.23723   4.24019
 Alpha virt. eigenvalues --    4.24274   4.24607   4.24717   4.25429   4.25754
 Alpha virt. eigenvalues --    4.26094   4.26573   4.27104   4.27607   4.28003
 Alpha virt. eigenvalues --    4.28373   4.28722   4.29269   4.29535   4.30014
 Alpha virt. eigenvalues --    4.31037   4.31204   4.31507   4.32228   4.32433
 Alpha virt. eigenvalues --    4.33079   4.33425   4.33806   4.34861   4.35224
 Alpha virt. eigenvalues --    4.35932   4.36720   4.37188   4.37676   4.38006
 Alpha virt. eigenvalues --    4.38914   4.39162   4.39416   4.40251   4.40721
 Alpha virt. eigenvalues --    4.41803   4.42091   4.42346   4.44093   4.44462
 Alpha virt. eigenvalues --    4.45291   4.45811   4.45955   4.46688   4.47437
 Alpha virt. eigenvalues --    4.48174   4.49084   4.49349   4.49874   4.50437
 Alpha virt. eigenvalues --    4.50833   4.51566   4.51802   4.52181   4.52306
 Alpha virt. eigenvalues --    4.53807   4.54495   4.55723   4.56145   4.56689
 Alpha virt. eigenvalues --    4.56981   4.58228   4.58818   4.59078   4.59200
 Alpha virt. eigenvalues --    4.59571   4.59955   4.60191   4.60896   4.61566
 Alpha virt. eigenvalues --    4.62065   4.62789   4.62911   4.63417   4.63701
 Alpha virt. eigenvalues --    4.64483   4.65089   4.65643   4.66696   4.67131
 Alpha virt. eigenvalues --    4.67872   4.68341   4.68705   4.69496   4.70362
 Alpha virt. eigenvalues --    4.72139   4.72330   4.73020   4.73285   4.73322
 Alpha virt. eigenvalues --    4.74527   4.74611   4.75256   4.76314   4.77192
 Alpha virt. eigenvalues --    4.78349   4.78857   4.79908   4.80995   4.81083
 Alpha virt. eigenvalues --    4.81602   4.82019   4.83275   4.83541   4.84366
 Alpha virt. eigenvalues --    4.85481   4.85727   4.86289   4.86640   4.87080
 Alpha virt. eigenvalues --    4.87603   4.88223   4.88768   4.89474   4.90307
 Alpha virt. eigenvalues --    4.91048   4.91591   4.92768   4.93956   4.95194
 Alpha virt. eigenvalues --    4.96318   4.97006   4.97326   4.99206   4.99650
 Alpha virt. eigenvalues --    5.01859   5.02997   5.03678   5.04238   5.07110
 Alpha virt. eigenvalues --    5.08649   5.08966   5.09680   5.10197   5.10568
 Alpha virt. eigenvalues --    5.11406   5.11850   5.12800   5.13108   5.14201
 Alpha virt. eigenvalues --    5.14364   5.14476   5.16045   5.17060   5.17919
 Alpha virt. eigenvalues --    5.18052   5.18549   5.18984   5.19785   5.21566
 Alpha virt. eigenvalues --    5.21693   5.22274   5.22959   5.24057   5.24892
 Alpha virt. eigenvalues --    5.25551   5.26636   5.26921   5.27799   5.29322
 Alpha virt. eigenvalues --    5.30479   5.31535   5.33958   5.34399   5.35122
 Alpha virt. eigenvalues --    5.35769   5.36872   5.37652   5.38319   5.39438
 Alpha virt. eigenvalues --    5.40929   5.45373   5.45795   5.47232   5.48255
 Alpha virt. eigenvalues --    5.48458   5.49457   5.50044   5.50246   5.51917
 Alpha virt. eigenvalues --    5.53090   5.53600   5.54811   5.55654   5.56395
 Alpha virt. eigenvalues --    5.57148   5.58199   5.62303   5.64038   5.65074
 Alpha virt. eigenvalues --    5.65313   5.65825   5.68524   5.70462   5.74854
 Alpha virt. eigenvalues --    5.75695   5.80223   5.81910   5.82343   5.84189
 Alpha virt. eigenvalues --    5.86523   5.87424   5.87636   5.87877   5.89887
 Alpha virt. eigenvalues --    5.93060   5.93954   5.94137   5.94432   6.00081
 Alpha virt. eigenvalues --    6.02057   6.03288   6.04673   6.05568   6.06391
 Alpha virt. eigenvalues --    6.07714   6.10189   6.17455   6.17784   6.18181
 Alpha virt. eigenvalues --    6.18609   6.21187   6.23160   6.29614   6.31688
 Alpha virt. eigenvalues --    6.33296   6.34320   6.41319   6.42296   6.43620
 Alpha virt. eigenvalues --    6.44006   6.46325   6.46597   6.60958   6.61068
 Alpha virt. eigenvalues --    6.69700   6.73347   6.77073   6.80241   6.91155
 Alpha virt. eigenvalues --    6.92357   6.97859   7.01998   7.09015   7.10432
 Alpha virt. eigenvalues --    7.11629   7.15872   7.22042   7.29319   9.20240
 Alpha virt. eigenvalues --    9.43694   9.53295  20.17589  22.35150  22.38510
 Alpha virt. eigenvalues --   22.41513  22.42168  22.43968  22.47047  22.48526
 Alpha virt. eigenvalues --   22.49097  22.51134  22.51639  22.55631  22.57614
 Alpha virt. eigenvalues --   22.58039  22.63945  22.65202  22.66153  22.69434
 Alpha virt. eigenvalues --   22.81538  22.83717  22.84096  22.87118  22.88147
 Alpha virt. eigenvalues --   22.95063  22.96408  22.98266  23.06701  23.10504
 Alpha virt. eigenvalues --   23.12716  23.13752  23.16261  23.25432  23.32244
 Alpha virt. eigenvalues --   23.41170  23.45852  23.49290  23.62454  23.63011
 Alpha virt. eigenvalues --   23.64483  23.67380  23.69305  23.76353  32.32912
 Alpha virt. eigenvalues --   32.75687  32.85095  32.93106  32.96781  33.08044
 Alpha virt. eigenvalues --   43.87462  43.88699  43.91078  43.94257
  Beta  occ. eigenvalues -- -256.51658 -89.12390 -30.26295 -26.10455 -26.09198
  Beta  occ. eigenvalues --  -26.08108 -19.33551 -19.32458 -19.24562 -19.23969
  Beta  occ. eigenvalues --  -14.54930 -14.50187 -14.50114 -14.49572 -14.48358
  Beta  occ. eigenvalues --  -14.48287 -10.41755 -10.41539 -10.38567 -10.36796
  Beta  occ. eigenvalues --  -10.36273 -10.36124 -10.36097 -10.35986 -10.35960
  Beta  occ. eigenvalues --  -10.35762 -10.35670 -10.35660 -10.34187 -10.33546
  Beta  occ. eigenvalues --  -10.32866 -10.32788 -10.32701 -10.32681 -10.32631
  Beta  occ. eigenvalues --  -10.32544 -10.32442 -10.32362 -10.32304 -10.32273
  Beta  occ. eigenvalues --  -10.32254 -10.32232 -10.32178 -10.31734 -10.31474
  Beta  occ. eigenvalues --  -10.31374 -10.31341 -10.31244 -10.30606 -10.30544
  Beta  occ. eigenvalues --  -10.30526 -10.30382 -10.30262 -10.30260 -10.29719
  Beta  occ. eigenvalues --  -10.29153 -10.29126  -8.10403  -6.04032  -6.03729
  Beta  occ. eigenvalues --   -6.03239  -3.56910  -2.34534  -2.30266  -2.30072
  Beta  occ. eigenvalues --   -1.25936  -1.24932  -1.15553  -1.11132  -1.10145
  Beta  occ. eigenvalues --   -1.09113  -1.08084  -1.07828  -1.06850  -1.01414
  Beta  occ. eigenvalues --   -0.94463  -0.94228  -0.93694  -0.93477  -0.92943
  Beta  occ. eigenvalues --   -0.92236  -0.91652  -0.91260  -0.89927  -0.88747
  Beta  occ. eigenvalues --   -0.88238  -0.86663  -0.86490  -0.86119  -0.85320
  Beta  occ. eigenvalues --   -0.83610  -0.82154  -0.81905  -0.81567  -0.81456
  Beta  occ. eigenvalues --   -0.79514  -0.78737  -0.77962  -0.76445  -0.76207
  Beta  occ. eigenvalues --   -0.76112  -0.74923  -0.74752  -0.74076  -0.72637
  Beta  occ. eigenvalues --   -0.72278  -0.71849  -0.70516  -0.69681  -0.68540
  Beta  occ. eigenvalues --   -0.66349  -0.65919  -0.65178  -0.64475  -0.64144
  Beta  occ. eigenvalues --   -0.62982  -0.62338  -0.61807  -0.61424  -0.60220
  Beta  occ. eigenvalues --   -0.59815  -0.59352  -0.59084  -0.59000  -0.58696
  Beta  occ. eigenvalues --   -0.58386  -0.58081  -0.57299  -0.57028  -0.56279
  Beta  occ. eigenvalues --   -0.55993  -0.55898  -0.55431  -0.55039  -0.54927
  Beta  occ. eigenvalues --   -0.54543  -0.54506  -0.54363  -0.54220  -0.53799
  Beta  occ. eigenvalues --   -0.53744  -0.53556  -0.53446  -0.52991  -0.52806
  Beta  occ. eigenvalues --   -0.52330  -0.51993  -0.51927  -0.51853  -0.51687
  Beta  occ. eigenvalues --   -0.51456  -0.51312  -0.50804  -0.50682  -0.50536
  Beta  occ. eigenvalues --   -0.50268  -0.50143  -0.49908  -0.49626  -0.49468
  Beta  occ. eigenvalues --   -0.49226  -0.48948  -0.48844  -0.48501  -0.48139
  Beta  occ. eigenvalues --   -0.47998  -0.47749  -0.47732  -0.47613  -0.47255
  Beta  occ. eigenvalues --   -0.46815  -0.46749  -0.46647  -0.46354  -0.45696
  Beta  occ. eigenvalues --   -0.45662  -0.45185  -0.44886  -0.44743  -0.44465
  Beta  occ. eigenvalues --   -0.44418  -0.43839  -0.43553  -0.43192  -0.42930
  Beta  occ. eigenvalues --   -0.42608  -0.41639  -0.40035  -0.39451  -0.39142
  Beta  occ. eigenvalues --   -0.38733  -0.38050  -0.36650  -0.35551  -0.35133
  Beta  occ. eigenvalues --   -0.34454  -0.34297  -0.34050  -0.33587  -0.32642
  Beta  occ. eigenvalues --   -0.30136  -0.29469
  Beta virt. eigenvalues --   -0.19655  -0.18096  -0.17970  -0.15424  -0.13989
  Beta virt. eigenvalues --   -0.13347  -0.11281  -0.10017  -0.09705  -0.07835
  Beta virt. eigenvalues --   -0.07721  -0.07087  -0.06652  -0.06281  -0.06276
  Beta virt. eigenvalues --   -0.05796  -0.05346  -0.04666  -0.04311  -0.03721
  Beta virt. eigenvalues --   -0.03413  -0.03038  -0.02759  -0.02570  -0.02417
  Beta virt. eigenvalues --   -0.02204  -0.02010  -0.01920  -0.01386  -0.01117
  Beta virt. eigenvalues --   -0.00859  -0.00706  -0.00185   0.00122   0.00380
  Beta virt. eigenvalues --    0.00683   0.00767   0.01290   0.01419   0.01630
  Beta virt. eigenvalues --    0.02127   0.02327   0.02566   0.02742   0.03103
  Beta virt. eigenvalues --    0.03172   0.03391   0.03613   0.03836   0.03957
  Beta virt. eigenvalues --    0.04141   0.04246   0.04462   0.04635   0.04901
  Beta virt. eigenvalues --    0.05084   0.05300   0.05475   0.05793   0.05895
  Beta virt. eigenvalues --    0.06121   0.06276   0.06365   0.06572   0.06619
  Beta virt. eigenvalues --    0.06769   0.06908   0.07212   0.07294   0.07385
  Beta virt. eigenvalues --    0.07840   0.08092   0.08192   0.08396   0.08559
  Beta virt. eigenvalues --    0.08809   0.08992   0.09242   0.09368   0.09901
  Beta virt. eigenvalues --    0.10024   0.10202   0.10282   0.10547   0.10937
  Beta virt. eigenvalues --    0.11142   0.11353   0.11738   0.11850   0.11931
  Beta virt. eigenvalues --    0.12100   0.12261   0.12517   0.12710   0.12886
  Beta virt. eigenvalues --    0.13172   0.13469   0.13612   0.13741   0.13974
  Beta virt. eigenvalues --    0.14038   0.14296   0.14512   0.14761   0.14945
  Beta virt. eigenvalues --    0.15108   0.15238   0.15489   0.15760   0.15823
  Beta virt. eigenvalues --    0.16049   0.16141   0.16448   0.16638   0.16809
  Beta virt. eigenvalues --    0.17108   0.17240   0.17479   0.17649   0.18037
  Beta virt. eigenvalues --    0.18164   0.18429   0.18475   0.18695   0.18945
  Beta virt. eigenvalues --    0.19019   0.19115   0.19363   0.19766   0.19838
  Beta virt. eigenvalues --    0.20200   0.20340   0.20718   0.21020   0.21141
  Beta virt. eigenvalues --    0.21265   0.21570   0.22033   0.22302   0.22407
  Beta virt. eigenvalues --    0.22605   0.22767   0.23031   0.23235   0.23472
  Beta virt. eigenvalues --    0.23582   0.23954   0.24131   0.24202   0.24284
  Beta virt. eigenvalues --    0.24522   0.24716   0.25249   0.25333   0.25537
  Beta virt. eigenvalues --    0.25651   0.25858   0.26129   0.26376   0.26657
  Beta virt. eigenvalues --    0.26734   0.27090   0.27292   0.27440   0.27822
  Beta virt. eigenvalues --    0.28059   0.28245   0.28442   0.28637   0.28811
  Beta virt. eigenvalues --    0.29176   0.29329   0.29547   0.29660   0.30045
  Beta virt. eigenvalues --    0.30188   0.30320   0.30606   0.30834   0.30968
  Beta virt. eigenvalues --    0.31072   0.31131   0.31451   0.31675   0.31753
  Beta virt. eigenvalues --    0.32041   0.32487   0.32578   0.32845   0.32998
  Beta virt. eigenvalues --    0.33124   0.33193   0.33540   0.33624   0.33909
  Beta virt. eigenvalues --    0.33950   0.34407   0.34695   0.34835   0.34997
  Beta virt. eigenvalues --    0.35065   0.35177   0.35413   0.35658   0.35756
  Beta virt. eigenvalues --    0.35834   0.36061   0.36245   0.36444   0.36618
  Beta virt. eigenvalues --    0.36822   0.36965   0.37129   0.37300   0.37510
  Beta virt. eigenvalues --    0.37742   0.37800   0.37894   0.38149   0.38339
  Beta virt. eigenvalues --    0.38536   0.38550   0.38568   0.38798   0.38910
  Beta virt. eigenvalues --    0.38981   0.39253   0.39403   0.39533   0.39705
  Beta virt. eigenvalues --    0.39953   0.40001   0.40251   0.40476   0.40574
  Beta virt. eigenvalues --    0.40775   0.40814   0.40851   0.40993   0.41214
  Beta virt. eigenvalues --    0.41413   0.41577   0.41723   0.41934   0.42326
  Beta virt. eigenvalues --    0.42430   0.42492   0.42854   0.43002   0.43246
  Beta virt. eigenvalues --    0.43388   0.43465   0.43687   0.43793   0.44009
  Beta virt. eigenvalues --    0.44276   0.44389   0.44561   0.44729   0.44930
  Beta virt. eigenvalues --    0.45054   0.45221   0.45484   0.45587   0.45738
  Beta virt. eigenvalues --    0.46057   0.46238   0.46552   0.46587   0.46671
  Beta virt. eigenvalues --    0.47139   0.47271   0.47485   0.47649   0.47829
  Beta virt. eigenvalues --    0.48202   0.48325   0.48528   0.48703   0.49033
  Beta virt. eigenvalues --    0.49169   0.49420   0.49567   0.49873   0.50154
  Beta virt. eigenvalues --    0.50283   0.50472   0.50753   0.50919   0.51255
  Beta virt. eigenvalues --    0.51373   0.51468   0.51786   0.52006   0.52173
  Beta virt. eigenvalues --    0.52305   0.52679   0.52864   0.53195   0.53336
  Beta virt. eigenvalues --    0.53726   0.53871   0.54152   0.54341   0.54584
  Beta virt. eigenvalues --    0.54877   0.54921   0.55264   0.55496   0.55733
  Beta virt. eigenvalues --    0.56147   0.56292   0.56487   0.56895   0.57065
  Beta virt. eigenvalues --    0.57332   0.57555   0.57688   0.58033   0.58141
  Beta virt. eigenvalues --    0.58468   0.58535   0.58952   0.59097   0.59403
  Beta virt. eigenvalues --    0.59780   0.60097   0.60271   0.60389   0.60608
  Beta virt. eigenvalues --    0.60973   0.61267   0.61368   0.61620   0.61804
[...]
  1755. RY*(   5) H  87                  0.00000     2.97964   
  1756. RY*(   1) H  88                  0.00078     0.47680   
  1757. RY*(   2) H  88                  0.00009     2.20831   
  1758. RY*(   3) H  88                  0.00007     2.63176   
  1759. RY*(   4) H  88                  0.00006     2.36393   
  1760. RY*(   5) H  88                  0.00001     3.06610   
  1761. RY*(   1) H  89                  0.00041     1.60957   
  1762. RY*(   2) H  89                  0.00008     2.20213   
  1763. RY*(   3) H  89                  0.00007     2.35284   
  1764. RY*(   4) H  89                  0.00004     1.97578   
  1765. RY*(   5) H  89                  0.00000     2.67878   
  1766. RY*(   1) H  90                  0.00028     1.27561   
  1767. RY*(   2) H  90                  0.00007     2.23264   
  1768. RY*(   3) H  90                  0.00005     1.59256   
  1769. RY*(   4) H  90                  0.00003     2.27545   
  1770. RY*(   5) H  90                  0.00000     2.89167   
  1771. RY*(   1) H  91                  0.00034     1.28417   
  1772. RY*(   2) H  91                  0.00006     1.40059   
  1773. RY*(   3) H  91                  0.00005     2.52673   
  1774. RY*(   4) H  91                  0.00004     2.29938   
  1775. RY*(   5) H  91                  0.00001     2.92809   
  1776. RY*(   1) H  92                  0.00043     1.77134   
  1777. RY*(   2) H  92                  0.00026     1.76317   
  1778. RY*(   3) H  92                  0.00015     2.07724   
  1779. RY*(   4) H  92                  0.00010     1.33339   
  1780. RY*(   5) H  92                  0.00000     3.22114   
  1781. RY*(   1) H  93                  0.00060     0.68065   
  1782. RY*(   2) H  93                  0.00014     2.14692   
  1783. RY*(   3) H  93                  0.00011     2.06490   
  1784. RY*(   4) H  93                  0.00005     2.95806   
  1785. RY*(   5) H  93                  0.00000     3.15613   
  1786. RY*(   1) H  94                  0.00035     0.99809   
  1787. RY*(   2) H  94                  0.00007     1.68159   
  1788. RY*(   3) H  94                  0.00003     2.06428   
  1789. RY*(   4) H  94                  0.00002     1.94674   
  1790. RY*(   5) H  94                  0.00000     2.83752   
  1791. RY*(   1) H  95                  0.00031     1.04880   
  1792. RY*(   2) H  95                  0.00008     1.63622   
  1793. RY*(   3) H  95                  0.00003     2.04122   
  1794. RY*(   4) H  95                  0.00002     1.90619   
  1795. RY*(   5) H  95                  0.00000     2.87154   
  1796. RY*(   1) H  96                  0.00020     1.28729   
  1797. RY*(   2) H  96                  0.00008     1.83985   
  1798. RY*(   3) H  96                  0.00003     2.03233   
  1799. RY*(   4) H  96                  0.00001     2.20111   
  1800. RY*(   5) H  96                  0.00000     2.37902   
  1801. RY*(   1) H  97                  0.00033     1.60518   
  1802. RY*(   2) H  97                  0.00007     2.49506   
  1803. RY*(   3) H  97                  0.00006     2.21333   
  1804. RY*(   4) H  97                  0.00003     1.57950   
  1805. RY*(   5) H  97                  0.00001     2.95190   
  1806. RY*(   1) H  98                  0.00032     1.59470   
  1807. RY*(   2) H  98                  0.00009     2.49578   
  1808. RY*(   3) H  98                  0.00005     1.66573   
  1809. RY*(   4) H  98                  0.00005     2.39719   
  1810. RY*(   5) H  98                  0.00000     2.77798   
  1811. RY*(   1) H  99                  0.00033     1.37046   
  1812. RY*(   2) H  99                  0.00008     1.82936   
  1813. RY*(   3) H  99                  0.00005     2.34921   
  1814. RY*(   4) H  99                  0.00004     2.19062   
  1815. RY*(   5) H  99                  0.00001     2.97760   
  1816. RY*(   1) H 100                  0.00026     1.46354   
  1817. RY*(   2) H 100                  0.00009     1.86122   
  1818. RY*(   3) H 100                  0.00003     1.82141   
  1819. RY*(   4) H 100                  0.00004     2.33363   
  1820. RY*(   5) H 100                  0.00001     3.02162   
  1821. RY*(   1) H 101                  0.00074     0.87367   
  1822. RY*(   2) H 101                  0.00032     0.89944   
  1823. RY*(   3) H 101                  0.00023     1.62968   
  1824. RY*(   4) H 101                  0.00010     1.27261   
  1825. RY*(   5) H 101                  0.00000     4.13917   
  1826. BD*(   1) C   1 - C   2          0.00721     0.26126   
  1827. BD*(   1) C   1 - H  62          0.00355     0.31316   
  1828. BD*(   1) C   1 - H  63          0.00144     0.30910   
  1829. BD*(   1) C   1 - H  64          0.00326     0.31365   
  1830. BD*(   1) C   2 - N   3          0.01268     0.29748   
  1831. BD*(   2) C   2 - N   3          0.37392    -0.14777  1836(v),190(v),1827(v)
                                                    1829(v),259(g),234(g)
  1832. BD*(   1) C   2 - C   4          0.00874     0.44099   
  1833. BD*(   1) N   3 - C   5          0.01190     0.35071   
  1834. BD*(   1) N   3 - H  65          0.00583     0.29640   
  1835. BD*(   1) C   4 - N   6          0.01016     0.33038   
  1836. BD*(   2) C   4 - N   6          0.35094    -0.12794  1831(v),190(v),193(v),285(g)
                                                    312(v),1930(r),341(g),337(g)
  1837. BD*(   1) C   4 - H  67          0.00538     0.32731   
  1838. BD*(   1) C   5 - N   6          0.00939     0.46346   
  1839. BD*(   1) C   5 - H  66          0.00936     0.29179   
  1840. BD*(   1) N   6 -Fe  11          0.03107     0.27069   
  1841. BD*(   1) C   7 - C   8          0.00443     0.26054   
  1842. BD*(   1) C   7 - H  57          0.00253     0.32912   
  1843. BD*(   1) C   7 - H  58          0.00330     0.33016   
  1844. BD*(   1) C   7 - H  59          0.00258     0.32678   
  1845. BD*(   1) C   8 - S   9          0.01450     0.07029   
  1846. BD*(   1) C   8 - H  60          0.00614     0.30912   
  1847. BD*(   1) C   8 - H  61          0.00934     0.32178   
  1848. BD*(   1) S   9 - C  10          0.00653     0.11300   
  1849. BD*(   1) S   9 -Fe  11          0.02602     0.25805   
  1850. BD*(   1) C  10 - H  54          0.00450     0.29251   
  1851. BD*(   1) C  10 - H  55          0.00719     0.31915   
  1852. BD*(   1) C  10 - H  56          0.00622     0.29711   
  1853. BD*(   1)Fe  11 - N  16          0.03144     0.31396   
  1854. BD*(   1)Fe  11 - N  27          0.02908     0.30856   
  1855. BD*(   1)Fe  11 - N  35          0.02924     0.30098   
  1856. BD*(   1)Fe  11 - N  43          0.02935     0.30790   
  1857. BD*(   1) C  12 - C  17          0.01029     0.46566   
  1858. BD*(   2) C  12 - C  17          0.20471    -0.06161  1930(v),1877(v),1862(r)
                                                    496(g),1871(r),630(g)
  1859. BD*(   1) C  12 - C  47          0.01054     0.46073   
  1860. BD*(   1) C  12 - H  93          0.00660     0.34360   
  1861. BD*(   1) C  13 - C  20          0.01026     0.46242   
  1862. BD*(   2) C  13 - C  20          0.19217    -0.05816  1895(v),1877(v),1858(r)
                                                    522(g),1866(r),708(g)
  1863. BD*(   1) C  13 - C  28          0.01000     0.47326   
  1864. BD*(   1) C  13 - H  84          0.00642     0.34806   
  1865. BD*(   1) C  14 - C  31          0.01027     0.46830   
  1866. BD*(   2) C  14 - C  31          0.20257    -0.06122  1912(v),1899(v),1895(v)
                                                    548(g),1862(r),993(g)
  1867. BD*(   1) C  14 - C  36          0.01019     0.47561   
  1868. BD*(   1) C  14 - H  75          0.00646     0.35059   
  1869. BD*(   1) C  15 - C  39          0.01009     0.47117   
  1870. BD*(   1) C  15 - C  44          0.01020     0.46304   
  1871. BD*(   2) C  15 - C  44          0.19139    -0.05942  1933(v),201(v),1930(v)
                                                    574(g),1858(r),1330(g)
  1872. BD*(   1) C  15 - H  83          0.00629     0.34939   
  1873. BD*(   1) N  16 - C  17          0.01417     0.36823   
  1874. BD*(   1) N  16 - C  20          0.01353     0.38208   
  1875. BD*(   1) C  17 - C  18          0.01661     0.38074   
  1876. BD*(   1) C  18 - C  19          0.00999     0.50796   
  1877. BD*(   2) C  18 - C  19          0.11815    -0.03181  1862(v),1858(v),1884(v)
                                                    1881(v),1882(v),1886(v)
  1878. BD*(   1) C  18 - C  22          0.01191     0.28986   
  1879. BD*(   1) C  19 - C  20          0.01656     0.37998   
  1880. BD*(   1) C  19 - C  21          0.00816     0.28761   
  1881. BD*(   1) C  21 - H  85          0.00394     0.32081   
  1882. BD*(   1) C  21 - H  86          0.00356     0.31856   
  1883. BD*(   1) C  21 - H  87          0.00236     0.32335   
  1884. BD*(   1) C  22 - C  23          0.00815     0.27425   
  1885. BD*(   1) C  22 - H  88          0.00749     0.30603   
  1886. BD*(   1) C  22 - H  89          0.00718     0.31751   
  1887. BD*(   1) C  23 - C  24          0.04414     0.27405   
  1888. BD*(   1) C  23 - H  90          0.00608     0.31031   
  1889. BD*(   1) C  23 - H  91          0.00539     0.32169   
  1890. BD*(   1) C  24 - O  25          0.02942     0.51726   
  1891. BD*(   2) C  24 - O  25          0.08127    -0.01556   
  1892. BD*(   1) C  24 - O  26          0.03617     0.47666   
  1893. BD*(   1) O  26 - H  92          0.00783     0.29993   
  1894. BD*(   1) N  27 - C  28          0.01514     0.35805   
  1895. BD*(   2) N  27 - C  28          0.33677    -0.11331  1862(v),1899(v),1866(v)
                                                    1930(r),913(g),886(g),522(v)
                                                    890(g),915(g),1849(v)
  1896. BD*(   1) N  27 - C  31          0.01478     0.34025   
  1897. BD*(   1) C  28 - C  29          0.01590     0.37581   
  1898. BD*(   1) C  29 - C  30          0.01127     0.47977   
  1899. BD*(   2) C  29 - C  30          0.12704    -0.03204  1866(v),1895(v),200(v)
                                                    1906(v),1904(v),1907(v)
                                                    1898(g),1903(v)
  1900. BD*(   1) C  29 - C  32          0.00811     0.27995   
  1901. BD*(   1) C  30 - C  31          0.01576     0.37174   
  1902. BD*(   1) C  30 - C  33          0.00926     0.43096   
  1903. BD*(   1) C  32 - H  72          0.00321     0.32669   
  1904. BD*(   1) C  32 - H  73          0.00392     0.32345   
  1905. BD*(   1) C  32 - H  74          0.00248     0.32677   
  1906. BD*(   1) C  33 - C  34          0.00482     0.28560   
  1907. BD*(   1) C  33 - H  68          0.00819     0.35998   
  1908. BD*(   1) C  34 - H  69          0.00117     0.32975   
  1909. BD*(   1) C  34 - H  70          0.00160     0.32943   
  1910. BD*(   1) C  34 - H  71          0.00255     0.32716   
  1911. BD*(   1) N  35 - C  36          0.01453     0.36286   
  1912. BD*(   2) N  35 - C  36          0.34269    -0.10981  1866(v),1916(v),201(v)
                                                    193(v),1120(g),1095(g)
                                                    1849(v)
  1913. BD*(   1) N  35 - C  39          0.01357     0.38283   
  1914. BD*(   1) C  36 - C  37          0.01625     0.38940   
  1915. BD*(   1) C  37 - C  38          0.01254     0.51336   
  1916. BD*(   2) C  37 - C  38          0.12319    -0.02054  1912(v),202(v),201(v)
                                                    1921(v),1915(g),1923(v)
                                                    1924(v)
  1917. BD*(   1) C  37 - C  40          0.00800     0.29306   
  1918. BD*(   1) C  38 - C  39          0.01719     0.39007   
  1919. BD*(   1) C  38 - C  41          0.01067     0.48320   
  1920. BD*(   1) C  40 - H  76          0.00284     0.32824   
  1921. BD*(   1) C  40 - H  77          0.00398     0.32299   
  1922. BD*(   1) C  40 - H  78          0.00262     0.32829   
  1923. BD*(   1) C  41 - C  42          0.00463     0.38056   
  1924. BD*(   1) C  41 - H  82          0.00989     0.35747   
  1925. BD*(   1) C  42 - H  79          0.00193     0.32868   
  1926. BD*(   1) C  42 - H  80          0.00212     0.32644   
  1927. BD*(   1) C  42 - H  81          0.00380     0.32543   
  1928. BD*(   1) N  43 - C  44          0.01501     0.34908   
  1929. BD*(   1) N  43 - C  47          0.01507     0.35880   
  1930. BD*(   2) N  43 - C  47          0.32809    -0.11335  1858(v),1933(v),1871(v)
                                                    1895(r),1405(g),1301(g)
                                                    496(v),1407(g),1836(r)
  1931. BD*(   1) C  44 - C  45          0.01620     0.38196   
  1932. BD*(   1) C  45 - C  46          0.01024     0.50853   
  1933. BD*(   2) C  45 - C  46          0.11322    -0.03094  1871(v),1930(v),1940(v)
                                                    1937(v),1938(v)
  1934. BD*(   1) C  45 - C  48          0.00861     0.28295   
  1935. BD*(   1) C  46 - C  47          0.01677     0.38161   
  1936. BD*(   1) C  46 - C  49          0.01150     0.29685   
  1937. BD*(   1) C  48 - H  94          0.00391     0.31961   
  1938. BD*(   1) C  48 - H  95          0.00334     0.32231   
  1939. BD*(   1) C  48 - H  96          0.00236     0.32632   
  1940. BD*(   1) C  49 - C  50          0.00811     0.27446   
  1941. BD*(   1) C  49 - H  97          0.00590     0.32603   
  1942. BD*(   1) C  49 - H  98          0.00683     0.32340   
  1943. BD*(   1) C  50 - C  51          0.03791     0.25380   
  1944. BD*(   1) C  50 - H  99          0.00479     0.32106   
  1945. BD*(   1) C  50 - H 100          0.00514     0.31225   
  1946. BD*(   1) C  51 - O  52          0.01559     0.52256   
  1947. BD*(   2) C  51 - O  52          0.11501     0.68971  1948(g),1825(r),1566(v)
                                                    1560(v),1573(v),1821(r)
                                                    1634(r),1638(r),1569(v)
                                                    1641(r),1564(v),1575(v)
                                                    1824(r),1946(g),1661(r)
                                                    1565(v),1585(v),1567(v)
                                                    1823(r),1656(r),1945(v)
                                                    1534(g),1822(r),1646(r)
                                                    1562(v),1517(g),1571(v)
                                                    1781(r),1521(g),1657(r)
                                                    1922(r),1580(v),1510(g)
                                                    1633(r),1561(v),1535(g)
                                                    1522(g),1597(r),1483(v)
                                                    1529(g),1537(g),1547(g)
                                                    1526(g),1541(g),1581(v)
                                                    1528(g),1595(r)
  1948. BD*(   1) C  51 - O  53          0.03486     4.94909   
  1949. BD*(   1) O  53 - H 101          0.00772     2.52686   
       -------------------------------
              Total Lewis  196.88492  ( 97.4678%)
        Valence non-Lewis    4.73947  (  2.3463%)
        Rydberg non-Lewis    0.37561  (  0.1859%)
       -------------------------------
            Total unit  1  202.00000  (100.0000%)
           Charge unit  1    3.00000
 1\1\GINC-NODE696\SP\UPBE1PBE\def2TZVP\C41H48Fe1N6O4S1(1+,6)\ZHARTOVSKA
 \09-Nov-2022\0\\# PBE1PBE/def2TZVP empiricaldispersion=GD3BJ scf=maxcy
 cle=999 geom=check pop=nbo\\1cxc_III_H\\1,6\C,0,78.752998,25.169001,20
 .826\C,0,79.831001,25.295,19.747\N,0,79.633003,26.038,18.579\C,0,81.03
 9001,24.628,19.697001\C,0,80.745003,25.796,17.85\N,0,81.569,24.989,18.
 445\C,0,87.301003,25.139999,16.516001\C,0,86.764999,24.030001,17.41900
 1\S,0,85.233002,23.263,16.796\C,0,85.511002,21.620001,17.33\Fe,0,83.26
 3,24.167999,17.721001\C,0,82.996002,25.962999,14.866\C,0,81.308998,21.
 716,16.389999\C,0,83.694,22.281,20.549999\C,0,84.963997,26.739,19.2070
 01\N,0,82.372002,23.871,15.983\C,0,82.376999,24.725,14.891\C,0,81.6370
 01,24.15,13.781\C,0,81.183998,22.943001,14.193\C,0,81.616997,22.796,15
 .572\C,0,80.466003,21.92,13.324\C,0,81.334999,24.801001,12.439\C,0,79.
 931,25.385,12.44\C,0,79.619003,26.367001,11.322\O,0,78.959999,27.35,11
 .59\O,0,80.199997,26.236,10.25\N,0,82.657997,22.391001,18.323\C,0,81.7
 78999,21.535999,17.674\C,0,81.483002,20.371,18.490999\C,0,82.213997,20
 .472,19.645\C,0,82.927002,21.74,19.533001\C,0,80.526001,19.236,18.107\
 C,0,82.306999,19.500999,20.683001\C,0,82.9152898,18.11683185,20.390317
 54\N,0,84.172997,24.438999,19.468\C,0,84.263,23.537001,20.524\C,0,84.9
 20998,24.139999,21.666\C,0,85.278,25.389999,21.291\C,0,84.799004,25.57
 3999,19.934999\C,0,84.983002,23.559,23.070999\C,0,85.932999,26.341,22.
 066999\C,0,87.223999,26.094999,22.693001\N,0,83.831001,25.954,17.16900
 1\C,0,84.523003,26.914,17.905001\C,0,84.813004,28.082001,17.101999\C,0
 ,84.324997,27.841,15.865\C,0,83.692001,26.537001,15.919\C,0,85.566002,
 29.334,17.547001\C,0,84.656998,28.629,14.607\C,0,85.712997,27.910999,1
 3.768\C,0,86.494003,28.816999,12.805\O,0,87.511002,28.375999,12.29\O,0
 ,85.924004,29.778,12.316\H,0,86.43022184,21.57302177,17.87564443\H,0,8
 4.70511162,21.30901652,17.9614502\H,0,85.56766673,20.97328741,16.47944
 098\H,0,88.24425242,24.84304872,16.10734336\H,0,86.60798121,25.3185160
 1,15.7205436\H,0,87.42611681,26.03571797,17.08778248\H,0,87.51439658,2
 3.27176807,17.51057656\H,0,86.57236195,24.44057225,18.38813578\H,0,79.
 12190644,25.56925979,21.74719458\H,0,77.88163149,25.71201109,20.524735
 27\H,0,78.50176896,24.13763976,20.96045431\H,0,78.8513545,26.61378281,
 18.3392089\H,0,80.92646676,26.22368306,16.8861234\H,0,81.47066703,23.9
 869344,20.43700056\H,0,81.95421749,19.73332004,21.66609415\H,0,83.8587
 8024,18.02952899,20.88741311\H,0,82.25356177,17.35428537,20.7446322\H,
 0,83.05617101,18.00495467,19.33554933\H,0,80.98605398,18.29389506,18.3
 2075109\H,0,79.62077427,19.3268281,18.67021828\H,0,80.30341413,19.2953
 1498,17.06209004\H,0,83.85757957,21.68066302,21.42048003\H,0,85.870461
 13,23.90254227,23.56017689\H,0,84.12460964,23.87533449,23.62597201\H,0
 ,84.99753538,22.4905747,23.01481931\H,0,87.94397837,26.78756088,22.309
 74163\H,0,87.13664338,26.22080101,23.75198299\H,0,87.54031088,25.09581
 473,22.4774144\H,0,85.46791514,27.29400028,22.20978369\H,0,85.46455636
 ,27.55789718,19.68002081\H,0,80.65692379,20.96616905,15.9931958\H,0,81
 .06813756,21.03969104,13.23803423\H,0,79.52741006,21.66781123,13.77159
 817\H,0,80.29777381,22.33341767,12.35153675\H,0,82.043032,25.58246942,
 12.25762642\H,0,81.41219975,24.06689388,11.66438604\H,0,79.23398844,24
 .57568552,12.37608641\H,0,79.77924741,25.88484069,13.3738257\H,0,81.15
 956392,26.2325026,10.22138026\H,0,82.93195666,26.52437317,13.95734317\
 H,0,86.50193577,29.38944365,17.03139071\H,0,84.98176819,30.20117925,17
 .31990848\H,0,85.74185198,29.28852686,18.60147195\H,0,85.02679343,29.5
 9378163,14.88511463\H,0,83.7680099,28.74897633,14.02372833\H,0,86.4102
 6659,27.44356199,14.43148908\H,0,85.22748885,27.14886917,13.19499044\H
 ,0,86.43468283,30.50249908,11.94734268\\Version=ES64L-G16RevA.03\State
 =6-A\HF=-3880.3799072\S2=8.831502\S2-1=0.\S2A=8.75172\RMSD=1.847e-09\D
 ipole=-0.3119854,-0.8200988,2.7298804\Quadrupole=-18.8140227,14.892899
 5,3.9211232,18.4077194,-0.5993451,-2.4839962\PG=C01 [X(C41H48Fe1N6O4S1
 )]\\@


 YOU CANNOT THROW TO THE GROUND THE LETTERS OF
 THE GREEK ALPHABET AND PICK UP THE ILIAD.
        - RUFUS CHOATE, 1799-1859
 Job cpu time:       6 days 17 hours 32 minutes 14.1 seconds.
 Elapsed time:       1 days 16 hours 31 minutes 14.8 seconds.
 File lengths (MBytes):  RWF=   3495 Int=      0 D2E=      0 Chk=    292 Scr=      1
 Normal termination of Gaussian 16 at Wed Nov  9 03:16:45 2022.
