 Initial command:
 /afs/math/software/gaussian/g16.A03/g16/l1.exe "/scratch/kleich_gaussian.5Rrsuzz/Gau-10099.inp" -scrdir="/scratch/kleich_gaussian.5Rrsuzz/"
 Entering Link 1 = /afs/math/software/gaussian/g16.A03/g16/l1.exe PID=     23613.
  
 Copyright (c) 1988,1990,1992,1993,1995,1998,2003,2009,2016,
            Gaussian, Inc.  All Rights Reserved.
  
 This is part of the Gaussian(R) 16 program.  It is based on
 the Gaussian(R) 09 system (copyright 2009, Gaussian, Inc.),
 the Gaussian(R) 03 system (copyright 2003, Gaussian, Inc.),
 the Gaussian(R) 98 system (copyright 1998, Gaussian, Inc.),
 the Gaussian(R) 94 system (copyright 1995, Gaussian, Inc.),
 the Gaussian 92(TM) system (copyright 1992, Gaussian, Inc.),
 the Gaussian 90(TM) system (copyright 1990, Gaussian, Inc.),
 the Gaussian 88(TM) system (copyright 1988, Gaussian, Inc.),
 the Gaussian 86(TM) system (copyright 1986, Carnegie Mellon
 University), and the Gaussian 82(TM) system (copyright 1983,
 Carnegie Mellon University). Gaussian is a federally registered
 trademark of Gaussian, Inc.
  
 This software contains proprietary and confidential information,
 including trade secrets, belonging to Gaussian, Inc.
  
 This software is provided under written license and may be
 used, copied, transmitted, or stored only in accord with that
 written license.
  
 The following legend is applicable only to US Government
 contracts under FAR:
  
                    RESTRICTED RIGHTS LEGEND
  
 Use, reproduction and disclosure by the US Government is
 subject to restrictions as set forth in subparagraphs (a)
 and (c) of the Commercial Computer Software - Restricted
 Rights clause in FAR 52.227-19.
  
 Gaussian, Inc.
 340 Quinnipiac St., Bldg. 40, Wallingford CT 06492
  
  
 ---------------------------------------------------------------
 Warning -- This program may not be used in any manner that
 competes with the business of Gaussian, Inc. or will provide
 assistance to any competitor of Gaussian, Inc.  The licensee
 of this program is prohibited from giving any competitor of
 Gaussian, Inc. access to this program.  By using this program,
 the user acknowledges that Gaussian, Inc. is engaged in the
 business of creating and licensing software in the field of
 computational chemistry and represents and warrants to the
 licensee that it is not a competitor of Gaussian, Inc. and that
 it will not use this program in any manner prohibited above.
 ---------------------------------------------------------------
  

 Cite this work as:
 Gaussian 16, Revision A.03,
 M. J. Frisch, G. W. Trucks, H. B. Schlegel, G. E. Scuseria, 
 M. A. Robb, J. R. Cheeseman, G. Scalmani, V. Barone, 
 G. A. Petersson, H. Nakatsuji, X. Li, M. Caricato, A. V. Marenich, 
 J. Bloino, B. G. Janesko, R. Gomperts, B. Mennucci, H. P. Hratchian, 
 J. V. Ortiz, A. F. Izmaylov, J. L. Sonnenberg, D. Williams-Young, 
 F. Ding, F. Lipparini, F. Egidi, J. Goings, B. Peng, A. Petrone, 
 T. Henderson, D. Ranasinghe, V. G. Zakrzewski, J. Gao, N. Rega, 
 G. Zheng, W. Liang, M. Hada, M. Ehara, K. Toyota, R. Fukuda, 
 J. Hasegawa, M. Ishida, T. Nakajima, Y. Honda, O. Kitao, H. Nakai, 
 T. Vreven, K. Throssell, J. A. Montgomery, Jr., J. E. Peralta, 
 F. Ogliaro, M. J. Bearpark, J. J. Heyd, E. N. Brothers, K. N. Kudin, 
 V. N. Staroverov, T. A. Keith, R. Kobayashi, J. Normand, 
 K. Raghavachari, A. P. Rendell, J. C. Burant, S. S. Iyengar, 
 J. Tomasi, M. Cossi, J. M. Millam, M. Klene, C. Adamo, R. Cammi, 
 J. W. Ochterski, R. L. Martin, K. Morokuma, O. Farkas, 
 J. B. Foresman, and D. J. Fox, Gaussian, Inc., Wallingford CT, 2016.
 
 ******************************************
 Gaussian 16:  ES64L-G16RevA.03 25-Dec-2016
                20-Oct-2022 
 ******************************************
 %nprocs=12
 Will use up to   12 processors via shared memory.
 %mem=16GB
 %chk=1es1_III_H.chk
 ----------------------------------------------------------------------
 # PBE1PBE/def2TZVP empiricaldispersion=GD3BJ int=(grid=ultrafine) geom
 =check guess=read scrf=(smd,solvent=Chloroform)
 ----------------------------------------------------------------------
 1/29=2,38=1,172=1/1;
 2/12=2,40=1/2;
 3/5=44,7=101,11=2,14=-4,25=1,30=1,70=32201,72=7,74=-13,75=-5,116=-2,124=41/1,2,3;
 4/5=1/1;
 5/5=2,38=6,53=7/2;
 6/7=2,8=2,9=2,10=2,28=1/1;
 99/5=1,9=1/99;
 ---------------
 1es1_III_H_solv
 ---------------
 Structure from the checkpoint file:  "1es1_III_H.chk"
 Charge =  1 Multiplicity = 6
 Z-Matrix found in chk file.
 C,0,10.389,7.264,-0.33
 C,0,10.259,5.837,-0.756
 N,0,9.134,5.066,-0.552
 C,0,11.151,5.032,-1.386
 C,0,9.377,3.851,-1.051
 N,0,10.59,3.786,-1.567
 C,0,15.294,-1.376,-4.837
 C,0,14.155,-0.842,-4.034
 N,0,13.153,-1.622,-3.506
 C,0,13.828,0.437,-3.727
 C,0,12.272,-0.809,-2.914
 N,0,12.643,0.45,-3.024
 C,0,10.604,2.74,-5.477
 C,0,14.465,4.118,-2.957
 C,0,13.023,1.409,0.762
 C,0,8.949,0.248,-1.643
 C,0,11.847,3.243,-5.138
 C,0,12.689,3.98,-6.045
 C,0,13.741,4.42,-5.313
 C,0,13.553,3.927,-3.964
 C,0,14.926,5.206,-5.829
 C,0,12.516,4.197,-7.544
 C,0,12.704,2.938,-8.38
 C,0,14.03,2.26,-8.115
 O,0,15.081,2.905,-8.307
 O,0,14.021,1.08,-7.709
 C,0,14.378,3.519,-1.705
 C,0,15.454,3.576,-0.732
 C,0,15.067,2.779,0.297
 C,0,13.74,2.28,-0.026
 C,0,16.767,4.356,-0.901
 C,0,15.891,2.344,1.32
 C,0,15.811,2.826,2.613
 C,0,11.803,0.824,0.411
 C,0,11.068,-0.079,1.279
 C,0,9.894,-0.389,0.647
 C,0,9.929,0.33,-0.627
 C,0,11.49,-0.455,2.707
 C,0,8.843,-1.203,1.073
 C,0,8.724,-1.87,2.298
 C,0,9.038,0.896,-2.887
 C,0,8.005,0.907,-3.919
 C,0,8.492,1.577,-4.993
 C,0,9.801,2.015,-4.623
 C,0,6.58,0.399,-3.808
 C,0,7.791,1.784,-6.337
 C,0,7.888,0.521,-7.174
 C,0,6.983,0.554,-8.391
 O,0,6.894,-0.478,-9.09
 O,0,6.357,1.606,-8.646
 N,0,12.403,3.173,-3.862
 N,0,13.341,2.706,-1.291
 N,0,11.114,1.069,-0.755
 N,0,10.119,1.648,-3.315
 Fe,0,11.722,2.174,-2.311
 H,0,11.39301548,7.59530484,-0.49459044
 H,0,9.71568828,7.86922777,-0.90030753
 H,0,10.15134638,7.34887162,0.70981612
 H,0,12.13475414,5.31903192,-1.6937994
 H,0,8.68088072,3.03856669,-1.03456622
 H,0,16.12537355,-0.70615757,-4.76608356
 H,0,15.57677429,-2.33661723,-4.45996785
 H,0,14.99647121,-1.4680826,-5.86066861
 H,0,14.40076373,1.3017994,-3.98960941
 H,0,11.38334878,-1.13758422,-2.41677629
 H,0,10.24220082,2.92579471,-6.46668767
 H,0,15.29388273,4.76755728,-3.14654883
 H,0,13.43167283,1.15988615,1.71898945
 H,0,8.08093901,-0.34767135,-1.45183054
 H,0,15.83157875,4.76053392,-5.47349037
 H,0,14.92068971,5.19801828,-6.89895705
 H,0,14.86393187,6.21541865,-5.47954108
 H,0,13.30389399,4.85992132,-7.83496116
 H,0,11.49510642,4.48705096,-7.68018638
 H,0,12.7334206,3.26008784,-9.39994796
 H,0,11.94937887,2.25147381,-8.05731015
 H,0,17.57858644,3.776441,-0.5132645
 H,0,16.93363033,4.55312077,-1.93940153
 H,0,16.70312161,5.28160954,-0.36802109
 H,0,16.62586767,1.59821028,1.09939356
 H,0,15.08553266,3.5720822,2.86191462
 H,0,16.47453864,2.4530382,3.36500796
 H,0,10.92579482,-0.809282,3.54429134
 H,0,10.90915833,0.41913513,2.91535244
 H,0,11.21262451,-1.42145384,2.34103579
 H,0,8.03498904,-1.33202301,0.38352821
 H,0,9.49755029,-1.78263903,3.03208992
 H,0,7.85949217,-2.46718181,2.50023771
 H,0,6.21394285,0.14807279,-4.78162092
 H,0,6.55871955,-0.46999403,-3.1840637
 H,0,5.96216789,1.16058706,-3.38001795
 H,0,8.34176467,2.53970743,-6.85706207
 H,0,6.75309308,1.93072391,-6.12224124
 H,0,7.52444511,-0.27299895,-6.55570112
 H,0,8.88931937,0.49072568,-7.54995609
 H,0,7.68908665,-0.92343443,-9.39170413
 H,0,15.93354949,2.48202666,-8.18109166
 H,0,8.28782269,5.36325904,-0.10970934
 H,0,13.09388415,-2.61900255,-3.55591233
 Recover connectivity data from disk.
 Center=     11.71287671      2.01178952     -2.94560547
 Residue   0                        charge    0.00000000 layers R        AvRTP=      2.58417927    243.74169436    156.17688519
 Residue   4                        charge    0.00000000 layers R        AvRTP=      0.00000000      0.00000000      0.00000000
 Residue   2 PDB Number    63_A HIS charge    0.00000000 layers R        AvRTP=      3.70683377    309.56710070    105.84552655
 Residue   3 PDB Number   201_A HEM charge    0.00000000 layers R        AvRTP=      0.13368844    219.02449887    106.40813221
 Residue   1 PDB Number    39_A HIS charge    0.00000000 layers R        AvRTP=      4.44151601    111.69608844     61.45485724
 Stoichiometry    C42H44FeN8O4(1+,6)
 Framework group  C1[X(C42H44FeN8O4)]
 Deg. of freedom   291
 Full point group                 C1      NOp   1
 Largest Abelian subgroup         C1      NOp   1
 Largest concise Abelian subgroup C1      NOp   1
                         Standard orientation:                         
 ---------------------------------------------------------------------
 Center     Atomic      Atomic             Coordinates (Angstroms)
 Number     Number       Type             X           Y           Z
 ---------------------------------------------------------------------
      1          6           0       -2.376143   -0.158234    5.582419
      2          6           0       -1.849930    0.387159    4.293872
      3          7           0       -1.578163    1.720338    4.069240
      4          6           0       -1.548717   -0.252873    3.136194
      5          6           0       -1.134542    1.839813    2.814967
      6          7           0       -1.100846    0.666369    2.211854
      7          6           0        0.492488   -2.311109   -4.720870
      8          6           0        0.137980   -1.290222   -3.691599
      9          7           0        0.064346    0.060284   -3.940392
     10          6           0       -0.100267   -1.434919   -2.365205
     11          6           0       -0.206164    0.674143   -2.783848
     12          7           0       -0.314690   -0.196163   -1.801193
     13          6           0        2.580579   -0.318988    0.848554
     14          6           0       -1.264239   -3.212404    0.802467
     15          6           0       -4.021767    0.450955   -0.689125
     16          6           0       -0.217458    3.474221   -0.347774
     17          6           0        1.777270   -1.444853    0.838492
     18          6           0        2.264017   -2.780018    1.073423
     19          6           0        1.170587   -3.578740    1.124239
     20          6           0        0.017919   -2.732608    0.892698
     21          6           0        1.165071   -5.080504    1.305762
     22          6           0        3.705352   -3.264006    1.184463
     23          6           0        4.484369   -3.201514   -0.122651
     24          6           0        3.787773   -3.935281   -1.247163
     25          8           0        3.539582   -5.150158   -1.105867
     26          8           0        3.483353   -3.294029   -2.273536
     27          6           0       -2.358136   -2.441833    0.423677
     28          6           0       -3.661609   -3.015666    0.141846
     29          6           0       -4.426249   -1.992472   -0.318825
     30          6           0       -3.606946   -0.792234   -0.269507
     31          6           0       -4.035878   -4.497255    0.302308
     32          6           0       -5.654240   -2.134150   -0.940674
     33          6           0       -6.851707   -1.801503   -0.335703
     34          6           0       -3.211060    1.587157   -0.764124
     35          6           0       -3.691543    2.887398   -1.197214
     36          6           0       -2.653297    3.770407   -1.070169
     37          6           0       -1.526759    2.985827   -0.563604
     38          6           0       -5.149860    3.203268   -1.560783
     39          6           0       -2.612248    5.139281   -1.340673
     40          6           0       -3.665314    5.955020   -1.771133
     41          6           0        0.865427    2.684600    0.075569
     42          6           0        2.203748    3.173138    0.395667
     43          6           0        2.980533    2.102598    0.695824
     44          6           0        2.127857    0.959533    0.603244
     45          6           0        2.657374    4.615141    0.521609
     46          6           0        4.473976    2.120190    1.027343
     47          6           0        5.287805    2.260104   -0.246727
     48          6           0        6.749057    2.565944    0.022361
     49          8           0        7.490249    2.815605   -0.952242
     50          8           0        7.155736    2.563120    1.204820
     51          7           0        0.392524   -1.422220    0.682998
     52          7           0       -2.311195   -1.089399    0.147173
     53          7           0       -1.889324    1.643010   -0.384390
     54          7           0        0.818749    1.315536    0.277398
     55         26           0       -0.735671    0.118124    0.211960
     56          1           0       -2.614104   -1.194289    5.460501
     57          1           0       -1.633566   -0.050194    6.345182
     58          1           0       -3.257406    0.379406    5.863877
     59          1           0       -1.643811   -1.305175    2.967324
     60          1           0       -0.845035    2.763880    2.359791
     61          1           0        0.080271   -3.257980   -4.440846
     62          1           0        0.094253   -2.015042   -5.668843
     63          1           0        1.557109   -2.392243   -4.790868
     64          1           0       -0.118932   -2.365957   -1.838213
     65          1           0       -0.319469    1.732174   -2.671455
     66          1           0        3.621272   -0.448991    1.060585
     67          1           0       -1.432828   -4.242466    1.037944
     68          1           0       -5.045785    0.556158   -0.981046
     69          1           0       -0.039022    4.515368   -0.518278
     70          1           0        0.526475   -5.526125    0.571925
     71          1           0        2.159653   -5.457507    1.189248
     72          1           0        0.805182   -5.320142    2.284513
     73          1           0        3.645179   -4.301769    1.438093
     74          1           0        4.192268   -2.578813    1.846521
     75          1           0        5.400510   -3.726017    0.051942
     76          1           0        4.504190   -2.170421   -0.407877
     77          1           0       -4.661787   -4.797231   -0.512033
     78          1           0       -3.146086   -5.091526    0.305958
     79          1           0       -4.560390   -4.634746    1.224741
     80          1           0       -5.677991   -2.519990   -1.938403
     81          1           0       -6.857699   -1.413469    0.661440
     82          1           0       -7.772686   -1.932032   -0.864533
     83          1           0       -5.696987    4.122782   -1.567480
     84          1           0       -5.179180    3.402799   -0.509961
     85          1           0       -4.651642    3.703182   -2.365001
     86          1           0       -1.666594    5.620645   -1.203096
     87          1           0       -4.637172    5.535750   -1.927995
     88          1           0       -3.498367    6.997800   -1.943294
     89          1           0        3.710180    4.674988    0.340178
     90          1           0        2.137293    5.216486   -0.194491
     91          1           0        2.444630    4.971112    1.507978
     92          1           0        4.708531    1.160070    1.437286
     93          1           0        4.650106    3.005054    1.602577
     94          1           0        4.895156    3.114761   -0.756911
     95          1           0        5.267897    1.299752   -0.718136
     96          1           0        7.501935    2.226079   -1.709819
     97          1           0        3.132192   -5.643275   -1.821736
     98          1           0       -1.692688    2.464403    4.727458
     99          1           0        0.190561    0.503883   -4.827686
 ---------------------------------------------------------------------
 Rotational constants (GHZ):           0.0601254           0.0458176           0.0361345
 Standard basis: def2TZVP (5D, 7F)
 There are  2260 symmetry adapted cartesian basis functions of A   symmetry.
 There are  1983 symmetry adapted basis functions of A   symmetry.
  1983 basis functions,  3208 primitive gaussians,  2260 cartesian basis functions
   207 alpha electrons      202 beta electrons
       nuclear repulsion energy      8970.5809964871 Hartrees.
 NAtoms=   99 NActive=   99 NUniq=   99 SFac= 1.00D+00 NAtFMM=   60 NAOKFM=T Big=T
 Integral buffers will be    131072 words long.
 Raffenetti 2 integral format.
 Two-electron integral symmetry is turned on.
 Nuclear repulsion after empirical dispersion term =     8970.4364949169 Hartrees.
 ------------------------------------------------------------------------------
 Polarizable Continuum Model (PCM)
 =================================
 Model                : PCM.
 Atomic radii         : SMD-Coulomb.
 Polarization charges : Total charges.
 Charge compensation  : None.
 Solution method      : On-the-fly selection.
 Cavity type          : VdW (van der Waals Surface) (Alpha=1.000).
 Cavity algorithm     : GePol (No added spheres)
                        Default sphere list used, NSphG=   99.
                        Lebedev-Laikov grids with approx.  5.0 points / Ang**2.
                        Smoothing algorithm: York/Karplus (Gamma=1.0000).
                        Polarization charges: spherical gaussians, with
                                              point-specific exponents (IZeta= 3).
                        Self-potential: point-specific (ISelfS= 7).
                        Self-field    : sphere-specific E.n sum rule (ISelfD= 2).
 Solvent              : Chloroform, Eps=   4.711300 Eps(inf)=   2.090627
 ------------------------------------------------------------------------------
 ------------------------------------------------------------------------------
 Atomic radii for non-electrostatic terms: SMD-CDS.
 ------------------------------------------------------------------------------
 Nuclear repulsion after PCM non-electrostatic terms =     8970.4144060463 Hartrees.
 One-electron integrals computed using PRISM.
   1 Symmetry operations used in ECPInt.
 ECPInt:  NShTT=  308505 NPrTT=  954269 LenC2=  226969 LenP2D=  452321.
 LDataN:  DoStor=T MaxTD1= 6 Len=  172
 NBasis=  1983 RedAO= T EigKep=  2.85D-06  NBF=  1983
 NBsUse=  1983 1.00D-06 EigRej= -1.00D+00 NBFU=  1983
 Initial guess from the checkpoint file:  "1es1_III_H.chk"
 B after Tr=     0.000000    0.000000    0.000000
         Rot=    1.000000   -0.000000    0.000000   -0.000000 Ang=   0.00 deg.
 Initial guess <Sx>= 0.0000 <Sy>= 0.0000 <Sz>= 2.5000 <S**2>= 8.7595 S= 2.5016
 Requested convergence on RMS density matrix=1.00D-08 within 128 cycles.
 Requested convergence on MAX density matrix=1.00D-06.
 Requested convergence on             energy=1.00D-06.
 No special actions if energy rises.
 Inv3:  Mode=1 IEnd=   147042003.
 Iteration    1 A*A^-1 deviation from unit magnitude is 1.44D-14 for   7000.
 Iteration    1 A*A^-1 deviation from orthogonality  is 5.37D-15 for   7000   6998.
 Iteration    1 A^-1*A deviation from unit magnitude is 1.38D-14 for   7000.
 Iteration    1 A^-1*A deviation from orthogonality  is 9.42D-10 for   4205   4169.
 Iteration    2 A*A^-1 deviation from unit magnitude is 2.89D-15 for   6989.
 Iteration    2 A*A^-1 deviation from orthogonality  is 6.33D-15 for   7001   1305.
 Iteration    2 A^-1*A deviation from unit magnitude is 1.55D-15 for   3059.
 Iteration    2 A^-1*A deviation from orthogonality  is 1.14D-15 for   3486   1668.
 Error on total polarization charges =  0.08161
 SCF Done:  E(UPBE1PBE) =  -3627.42497888     A.U. after   18 cycles
            NFock= 18  Conv=0.28D-08     -V/T= 2.0032
 <Sx>= 0.0000 <Sy>= 0.0000 <Sz>= 2.5000 <S**2>= 8.7592 S= 2.5015
 <L.S>= 0.000000000000E+00
 SMD-CDS (non-electrostatic) energy       (kcal/mol) =     -13.86
 (included in total energy above)
 Annihilation of the first spin contaminant:
 S**2 before annihilation     8.7592,   after     8.7500

 **********************************************************************

            Population analysis using the SCF density.

 **********************************************************************

 Orbital symmetries:
 Alpha Orbitals:
       Occupied  (A) (A) (A) (A) (A) (A) (A) (A) (A) (A) (A) (A)
                 (A) (A) (A) (A) (A) (A) (A) (A) (A) (A) (A) (A)
                 (A) (A) (A) (A) (A) (A) (A) (A) (A) (A) (A) (A)
                 (A) (A) (A) (A) (A) (A) (A) (A) (A) (A) (A) (A)
                 (A) (A) (A) (A) (A) (A) (A) (A) (A) (A) (A) (A)
                 (A) (A) (A) (A) (A) (A) (A) (A) (A) (A) (A) (A)
                 (A) (A) (A) (A) (A) (A) (A) (A) (A) (A) (A) (A)
                 (A) (A) (A) (A) (A) (A) (A) (A) (A) (A) (A) (A)
                 (A) (A) (A) (A) (A) (A) (A) (A) (A) (A) (A) (A)
                 (A) (A) (A) (A) (A) (A) (A) (A) (A) (A) (A) (A)
                 (A) (A) (A) (A) (A) (A) (A) (A) (A) (A) (A) (A)
                 (A) (A) (A) (A) (A) (A) (A) (A) (A) (A) (A) (A)
                 (A) (A) (A) (A) (A) (A) (A) (A) (A) (A) (A) (A)
                 (A) (A) (A) (A) (A) (A) (A) (A) (A) (A) (A) (A)
                 (A) (A) (A) (A) (A) (A) (A) (A) (A) (A) (A) (A)
                 (A) (A) (A) (A) (A) (A) (A) (A) (A) (A) (A) (A)
                 (A) (A) (A) (A) (A) (A) (A) (A) (A) (A) (A) (A)
                 (A) (A) (A)
       Virtual   (A) (A) (A) (A) (A) (A) (A) (A) (A) (A) (A) (A)
                 (A) (A) (A) (A) (A) (A) (A) (A) (A) (A) (A) (A)
                 (A) (A) (A) (A) (A) (A) (A) (A) (A) (A) (A) (A)
                 (A) (A) (A) (A) (A) (A) (A) (A) (A) (A) (A) (A)
                 (A) (A) (A) (A) (A) (A) (A) (A) (A) (A) (A) (A)
                 (A) (A) (A) (A) (A) (A) (A) (A) (A) (A) (A) (A)
                 (A) (A) (A) (A) (A) (A) (A) (A) (A) (A) (A) (A)
                 (A) (A) (A) (A) (A) (A) (A) (A) (A) (A) (A) (A)
                 (A) (A) (A) (A) (A) (A) (A) (A) (A) (A) (A) (A)
                 (A) (A) (A) (A) (A) (A) (A) (A) (A) (A) (A) (A)
                 (A) (A) (A) (A) (A) (A) (A) (A) (A) (A) (A) (A)
                 (A) (A) (A) (A) (A) (A) (A) (A) (A) (A) (A) (A)
                 (A) (A) (A) (A) (A) (A) (A) (A) (A) (A) (A) (A)
                 (A) (A) (A) (A) (A) (A) (A) (A) (A) (A) (A) (A)
                 (A) (A) (A) (A) (A) (A) (A) (A) (A) (A) (A) (A)
                 (A) (A) (A) (A) (A) (A) (A) (A) (A) (A) (A) (A)
                 (A) (A) (A) (A) (A) (A) (A) (A) (A) (A) (A) (A)
                 (A) (A) (A) (A) (A) (A) (A) (A) (A) (A) (A) (A)
                 (A) (A) (A) (A) (A) (A) (A) (A) (A) (A) (A) (A)
                 (A) (A) (A) (A) (A) (A) (A) (A) (A) (A) (A) (A)
                 (A) (A) (A) (A) (A) (A) (A) (A) (A) (A) (A) (A)
                 (A) (A) (A) (A) (A) (A) (A) (A) (A) (A) (A) (A)
                 (A) (A) (A) (A) (A) (A) (A) (A) (A) (A) (A) (A)
                 (A) (A) (A) (A) (A) (A) (A) (A) (A) (A) (A) (A)
                 (A) (A) (A) (A) (A) (A) (A) (A) (A) (A) (A) (A)
                 (A) (A) (A) (A) (A) (A) (A) (A) (A) (A) (A) (A)
                 (A) (A) (A) (A) (A) (A) (A) (A) (A) (A) (A) (A)
                 (A) (A) (A) (A) (A) (A) (A) (A) (A) (A) (A) (A)
                 (A) (A) (A) (A) (A) (A) (A) (A) (A) (A) (A) (A)
                 (A) (A) (A) (A) (A) (A) (A) (A) (A) (A) (A) (A)
                 (A) (A) (A) (A) (A) (A) (A) (A) (A) (A) (A) (A)
                 (A) (A) (A) (A) (A) (A) (A) (A) (A) (A) (A) (A)
                 (A) (A) (A) (A) (A) (A) (A) (A) (A) (A) (A) (A)
                 (A) (A) (A) (A) (A) (A) (A) (A) (A) (A) (A) (A)
                 (A) (A) (A) (A) (A) (A) (A) (A) (A) (A) (A) (A)
                 (A) (A) (A) (A) (A) (A) (A) (A) (A) (A) (A) (A)
                 (A) (A) (A) (A) (A) (A) (A) (A) (A) (A) (A) (A)
                 (A) (A) (A) (A) (A) (A) (A) (A) (A) (A) (A) (A)
                 (A) (A) (A) (A) (A) (A) (A) (A) (A) (A) (A) (A)
                 (A) (A) (A) (A) (A) (A) (A) (A) (A) (A) (A) (A)
                 (A) (A) (A) (A) (A) (A) (A) (A) (A) (A) (A) (A)
                 (A) (A) (A) (A) (A) (A) (A) (A) (A) (A) (A) (A)
                 (A) (A) (A) (A) (A) (A) (A) (A) (A) (A) (A) (A)
                 (A) (A) (A) (A) (A) (A) (A) (A) (A) (A) (A) (A)
                 (A) (A) (A) (A) (A) (A) (A) (A) (A) (A) (A) (A)
                 (A) (A) (A) (A) (A) (A) (A) (A) (A) (A) (A) (A)
                 (A) (A) (A) (A) (A) (A) (A) (A) (A) (A) (A) (A)
                 (A) (A) (A) (A) (A) (A) (A) (A) (A) (A) (A) (A)
                 (A) (A) (A) (A) (A) (A) (A) (A) (A) (A) (A) (A)
                 (A) (A) (A) (A) (A) (A) (A) (A) (A) (A) (A) (A)
                 (A) (A) (A) (A) (A) (A) (A) (A) (A) (A) (A) (A)
                 (A) (A) (A) (A) (A) (A) (A) (A) (A) (A) (A) (A)
                 (A) (A) (A) (A) (A) (A) (A) (A) (A) (A) (A) (A)
                 (A) (A) (A) (A) (A) (A) (A) (A) (A) (A) (A) (A)
                 (A) (A) (A) (A) (A) (A) (A) (A) (A) (A) (A) (A)
                 (A) (A) (A) (A) (A) (A) (A) (A) (A) (A) (A) (A)
                 (A) (A) (A) (A) (A) (A) (A) (A) (A) (A) (A) (A)
                 (A) (A) (A) (A) (A) (A) (A) (A) (A) (A) (A) (A)
                 (A) (A) (A) (A) (A) (A) (A) (A) (A) (A) (A) (A)
                 (A) (A) (A) (A) (A) (A) (A) (A) (A) (A) (A) (A)
                 (A) (A) (A) (A) (A) (A) (A) (A) (A) (A) (A) (A)
                 (A) (A) (A) (A) (A) (A) (A) (A) (A) (A) (A) (A)
                 (A) (A) (A) (A) (A) (A) (A) (A) (A) (A) (A) (A)
                 (A) (A) (A) (A) (A) (A) (A) (A) (A) (A) (A) (A)
                 (A) (A) (A) (A) (A) (A) (A) (A) (A) (A) (A) (A)
                 (A) (A) (A) (A) (A) (A) (A) (A) (A) (A) (A) (A)
                 (A) (A) (A) (A) (A) (A) (A) (A) (A) (A) (A) (A)
                 (A) (A) (A) (A) (A) (A) (A) (A) (A) (A) (A) (A)
                 (A) (A) (A) (A) (A) (A) (A) (A) (A) (A) (A) (A)
                 (A) (A) (A) (A) (A) (A) (A) (A) (A) (A) (A) (A)
                 (A) (A) (A) (A) (A) (A) (A) (A) (A) (A) (A) (A)
                 (A) (A) (A) (A) (A) (A) (A) (A) (A) (A) (A) (A)
                 (A) (A) (A) (A) (A) (A) (A) (A) (A) (A) (A) (A)
                 (A) (A) (A) (A) (A) (A) (A) (A) (A) (A) (A) (A)
                 (A) (A) (A) (A) (A) (A) (A) (A) (A) (A) (A) (A)
                 (A) (A) (A) (A) (A) (A) (A) (A) (A) (A) (A) (A)
                 (A) (A) (A) (A) (A) (A) (A) (A) (A) (A) (A) (A)
                 (A) (A) (A) (A) (A) (A) (A) (A) (A) (A) (A) (A)
                 (A) (A) (A) (A) (A) (A) (A) (A) (A) (A) (A) (A)
                 (A) (A) (A) (A) (A) (A) (A) (A) (A) (A) (A) (A)
                 (A) (A) (A) (A) (A) (A) (A) (A) (A) (A) (A) (A)
                 (A) (A) (A) (A) (A) (A) (A) (A) (A) (A) (A) (A)
                 (A) (A) (A) (A) (A) (A) (A) (A) (A) (A) (A) (A)
                 (A) (A) (A) (A) (A) (A) (A) (A) (A) (A) (A) (A)
                 (A) (A) (A) (A) (A) (A) (A) (A) (A) (A) (A) (A)
                 (A) (A) (A) (A) (A) (A) (A) (A) (A) (A) (A) (A)
                 (A) (A) (A) (A) (A) (A) (A) (A) (A) (A) (A) (A)
                 (A) (A) (A) (A) (A) (A) (A) (A) (A) (A) (A) (A)
                 (A) (A) (A) (A) (A) (A) (A) (A) (A) (A) (A) (A)
                 (A) (A) (A) (A) (A) (A) (A) (A) (A) (A) (A) (A)
                 (A) (A) (A) (A) (A) (A) (A) (A) (A) (A) (A) (A)
                 (A) (A) (A) (A) (A) (A) (A) (A) (A) (A) (A) (A)
                 (A) (A) (A) (A) (A) (A) (A) (A) (A) (A) (A) (A)
                 (A) (A) (A) (A) (A) (A) (A) (A) (A) (A) (A) (A)
                 (A) (A) (A) (A) (A) (A) (A) (A) (A) (A) (A) (A)
                 (A) (A) (A) (A) (A) (A) (A) (A) (A) (A) (A) (A)
                 (A) (A) (A) (A) (A) (A) (A) (A) (A) (A) (A) (A)
                 (A) (A) (A) (A) (A) (A) (A) (A) (A) (A) (A) (A)
                 (A) (A) (A) (A) (A) (A) (A) (A) (A) (A) (A) (A)
                 (A) (A) (A) (A) (A) (A) (A) (A) (A) (A) (A) (A)
                 (A) (A) (A) (A) (A) (A) (A) (A) (A) (A) (A) (A)
                 (A) (A) (A) (A) (A) (A) (A) (A) (A) (A) (A) (A)
                 (A) (A) (A) (A) (A) (A) (A) (A) (A) (A) (A) (A)
                 (A) (A) (A) (A) (A) (A) (A) (A) (A) (A) (A) (A)
                 (A) (A) (A) (A) (A) (A) (A) (A) (A) (A) (A) (A)
                 (A) (A) (A) (A) (A) (A) (A) (A) (A) (A) (A) (A)
                 (A) (A) (A) (A) (A) (A) (A) (A) (A) (A) (A) (A)
                 (A) (A) (A) (A) (A) (A) (A) (A) (A) (A) (A) (A)
                 (A) (A) (A) (A) (A) (A) (A) (A) (A) (A) (A) (A)
                 (A) (A) (A) (A) (A) (A) (A) (A) (A) (A) (A) (A)
                 (A) (A) (A) (A) (A) (A) (A) (A) (A) (A) (A) (A)
                 (A) (A) (A) (A) (A) (A) (A) (A) (A) (A) (A) (A)
                 (A) (A) (A) (A) (A) (A) (A) (A) (A) (A) (A) (A)
                 (A) (A) (A) (A) (A) (A) (A) (A) (A) (A) (A) (A)
                 (A) (A) (A) (A) (A) (A) (A) (A) (A) (A) (A) (A)
                 (A) (A) (A) (A) (A) (A) (A) (A) (A) (A) (A) (A)
                 (A) (A) (A) (A) (A) (A) (A) (A) (A) (A) (A) (A)
                 (A) (A) (A) (A) (A) (A) (A) (A) (A) (A) (A) (A)
                 (A) (A) (A) (A) (A) (A) (A) (A) (A) (A) (A) (A)
                 (A) (A) (A) (A) (A) (A) (A) (A) (A) (A) (A) (A)
                 (A) (A) (A) (A) (A) (A) (A) (A) (A) (A) (A) (A)
                 (A) (A) (A) (A) (A) (A) (A) (A) (A) (A) (A) (A)
                 (A) (A) (A) (A) (A) (A) (A) (A) (A) (A) (A) (A)
                 (A) (A) (A) (A) (A) (A) (A) (A) (A) (A) (A) (A)
                 (A) (A) (A) (A) (A) (A) (A) (A) (A) (A) (A) (A)
                 (A) (A) (A) (A) (A) (A) (A) (A) (A) (A) (A) (A)
                 (A) (A) (A) (A) (A) (A) (A) (A) (A) (A) (A) (A)
                 (A) (A) (A) (A) (A) (A) (A) (A) (A) (A) (A) (A)
                 (A) (A) (A) (A) (A) (A) (A) (A) (A) (A) (A) (A)
                 (A) (A) (A) (A) (A) (A) (A) (A) (A) (A) (A) (A)
                 (A) (A) (A) (A) (A) (A) (A) (A) (A) (A) (A) (A)
                 (A) (A) (A) (A) (A) (A) (A) (A) (A) (A) (A) (A)
                 (A) (A) (A) (A) (A) (A) (A) (A) (A) (A) (A) (A)
                 (A) (A) (A) (A) (A) (A) (A) (A) (A) (A) (A) (A)
                 (A) (A) (A) (A) (A) (A) (A) (A) (A) (A) (A) (A)
                 (A) (A) (A) (A) (A) (A) (A) (A) (A) (A) (A) (A)
                 (A) (A) (A) (A) (A) (A) (A) (A) (A) (A) (A) (A)
                 (A) (A) (A) (A) (A) (A) (A) (A) (A) (A) (A) (A)
                 (A) (A) (A) (A) (A) (A) (A) (A) (A) (A) (A) (A)
                 (A) (A) (A) (A) (A) (A) (A) (A) (A) (A) (A) (A)
                 (A) (A) (A) (A) (A) (A) (A) (A) (A) (A) (A) (A)
                 (A) (A) (A) (A) (A) (A) (A) (A) (A) (A) (A) (A)
                 (A) (A) (A) (A) (A) (A) (A) (A) (A) (A) (A) (A)
                 (A) (A) (A) (A) (A) (A) (A) (A) (A) (A) (A) (A)
                 (A) (A) (A) (A) (A) (A) (A) (A) (A) (A) (A) (A)
                 (A) (A) (A) (A) (A) (A) (A) (A) (A) (A) (A) (A)
                 (A) (A) (A) (A) (A) (A) (A) (A) (A) (A) (A) (A)
                 (A) (A) (A) (A) (A) (A) (A) (A) (A) (A) (A) (A)
 Beta  Orbitals:
       Occupied  (A) (A) (A) (A) (A) (A) (A) (A) (A) (A) (A) (A)
                 (A) (A) (A) (A) (A) (A) (A) (A) (A) (A) (A) (A)
                 (A) (A) (A) (A) (A) (A) (A) (A) (A) (A) (A) (A)
                 (A) (A) (A) (A) (A) (A) (A) (A) (A) (A) (A) (A)
                 (A) (A) (A) (A) (A) (A) (A) (A) (A) (A) (A) (A)
                 (A) (A) (A) (A) (A) (A) (A) (A) (A) (A) (A) (A)
                 (A) (A) (A) (A) (A) (A) (A) (A) (A) (A) (A) (A)
                 (A) (A) (A) (A) (A) (A) (A) (A) (A) (A) (A) (A)
                 (A) (A) (A) (A) (A) (A) (A) (A) (A) (A) (A) (A)
                 (A) (A) (A) (A) (A) (A) (A) (A) (A) (A) (A) (A)
                 (A) (A) (A) (A) (A) (A) (A) (A) (A) (A) (A) (A)
                 (A) (A) (A) (A) (A) (A) (A) (A) (A) (A) (A) (A)
                 (A) (A) (A) (A) (A) (A) (A) (A) (A) (A) (A) (A)
                 (A) (A) (A) (A) (A) (A) (A) (A) (A) (A) (A) (A)
                 (A) (A) (A) (A) (A) (A) (A) (A) (A) (A) (A) (A)
                 (A) (A) (A) (A) (A) (A) (A) (A) (A) (A) (A) (A)
                 (A) (A) (A) (A) (A) (A) (A) (A) (A) (A)
       Virtual   (A) (A) (A) (A) (A) (A) (A) (A) (A) (A) (A) (A)
                 (A) (A) (A) (A) (A) (A) (A) (A) (A) (A) (A) (A)
                 (A) (A) (A) (A) (A) (A) (A) (A) (A) (A) (A) (A)
                 (A) (A) (A) (A) (A) (A) (A) (A) (A) (A) (A) (A)
                 (A) (A) (A) (A) (A) (A) (A) (A) (A) (A) (A) (A)
                 (A) (A) (A) (A) (A) (A) (A) (A) (A) (A) (A) (A)
                 (A) (A) (A) (A) (A) (A) (A) (A) (A) (A) (A) (A)
                 (A) (A) (A) (A) (A) (A) (A) (A) (A) (A) (A) (A)
                 (A) (A) (A) (A) (A) (A) (A) (A) (A) (A) (A) (A)
                 (A) (A) (A) (A) (A) (A) (A) (A) (A) (A) (A) (A)
                 (A) (A) (A) (A) (A) (A) (A) (A) (A) (A) (A) (A)
                 (A) (A) (A) (A) (A) (A) (A) (A) (A) (A) (A) (A)
                 (A) (A) (A) (A) (A) (A) (A) (A) (A) (A) (A) (A)
                 (A) (A) (A) (A) (A) (A) (A) (A) (A) (A) (A) (A)
                 (A) (A) (A) (A) (A) (A) (A) (A) (A) (A) (A) (A)
                 (A) (A) (A) (A) (A) (A) (A) (A) (A) (A) (A) (A)
                 (A) (A) (A) (A) (A) (A) (A) (A) (A) (A) (A) (A)
                 (A) (A) (A) (A) (A) (A) (A) (A) (A) (A) (A) (A)
                 (A) (A) (A) (A) (A) (A) (A) (A) (A) (A) (A) (A)
                 (A) (A) (A) (A) (A) (A) (A) (A) (A) (A) (A) (A)
                 (A) (A) (A) (A) (A) (A) (A) (A) (A) (A) (A) (A)
                 (A) (A) (A) (A) (A) (A) (A) (A) (A) (A) (A) (A)
                 (A) (A) (A) (A) (A) (A) (A) (A) (A) (A) (A) (A)
                 (A) (A) (A) (A) (A) (A) (A) (A) (A) (A) (A) (A)
                 (A) (A) (A) (A) (A) (A) (A) (A) (A) (A) (A) (A)
                 (A) (A) (A) (A) (A) (A) (A) (A) (A) (A) (A) (A)
                 (A) (A) (A) (A) (A) (A) (A) (A) (A) (A) (A) (A)
                 (A) (A) (A) (A) (A) (A) (A) (A) (A) (A) (A) (A)
                 (A) (A) (A) (A) (A) (A) (A) (A) (A) (A) (A) (A)
                 (A) (A) (A) (A) (A) (A) (A) (A) (A) (A) (A) (A)
                 (A) (A) (A) (A) (A) (A) (A) (A) (A) (A) (A) (A)
                 (A) (A) (A) (A) (A) (A) (A) (A) (A) (A) (A) (A)
                 (A) (A) (A) (A) (A) (A) (A) (A) (A) (A) (A) (A)
                 (A) (A) (A) (A) (A) (A) (A) (A) (A) (A) (A) (A)
                 (A) (A) (A) (A) (A) (A) (A) (A) (A) (A) (A) (A)
                 (A) (A) (A) (A) (A) (A) (A) (A) (A) (A) (A) (A)
                 (A) (A) (A) (A) (A) (A) (A) (A) (A) (A) (A) (A)
                 (A) (A) (A) (A) (A) (A) (A) (A) (A) (A) (A) (A)
                 (A) (A) (A) (A) (A) (A) (A) (A) (A) (A) (A) (A)
                 (A) (A) (A) (A) (A) (A) (A) (A) (A) (A) (A) (A)
                 (A) (A) (A) (A) (A) (A) (A) (A) (A) (A) (A) (A)
                 (A) (A) (A) (A) (A) (A) (A) (A) (A) (A) (A) (A)
                 (A) (A) (A) (A) (A) (A) (A) (A) (A) (A) (A) (A)
                 (A) (A) (A) (A) (A) (A) (A) (A) (A) (A) (A) (A)
                 (A) (A) (A) (A) (A) (A) (A) (A) (A) (A) (A) (A)
                 (A) (A) (A) (A) (A) (A) (A) (A) (A) (A) (A) (A)
                 (A) (A) (A) (A) (A) (A) (A) (A) (A) (A) (A) (A)
                 (A) (A) (A) (A) (A) (A) (A) (A) (A) (A) (A) (A)
                 (A) (A) (A) (A) (A) (A) (A) (A) (A) (A) (A) (A)
                 (A) (A) (A) (A) (A) (A) (A) (A) (A) (A) (A) (A)
                 (A) (A) (A) (A) (A) (A) (A) (A) (A) (A) (A) (A)
                 (A) (A) (A) (A) (A) (A) (A) (A) (A) (A) (A) (A)
                 (A) (A) (A) (A) (A) (A) (A) (A) (A) (A) (A) (A)
                 (A) (A) (A) (A) (A) (A) (A) (A) (A) (A) (A) (A)
                 (A) (A) (A) (A) (A) (A) (A) (A) (A) (A) (A) (A)
                 (A) (A) (A) (A) (A) (A) (A) (A) (A) (A) (A) (A)
                 (A) (A) (A) (A) (A) (A) (A) (A) (A) (A) (A) (A)
                 (A) (A) (A) (A) (A) (A) (A) (A) (A) (A) (A) (A)
                 (A) (A) (A) (A) (A) (A) (A) (A) (A) (A) (A) (A)
                 (A) (A) (A) (A) (A) (A) (A) (A) (A) (A) (A) (A)
                 (A) (A) (A) (A) (A) (A) (A) (A) (A) (A) (A) (A)
                 (A) (A) (A) (A) (A) (A) (A) (A) (A) (A) (A) (A)
                 (A) (A) (A) (A) (A) (A) (A) (A) (A) (A) (A) (A)
                 (A) (A) (A) (A) (A) (A) (A) (A) (A) (A) (A) (A)
                 (A) (A) (A) (A) (A) (A) (A) (A) (A) (A) (A) (A)
                 (A) (A) (A) (A) (A) (A) (A) (A) (A) (A) (A) (A)
                 (A) (A) (A) (A) (A) (A) (A) (A) (A) (A) (A) (A)
                 (A) (A) (A) (A) (A) (A) (A) (A) (A) (A) (A) (A)
                 (A) (A) (A) (A) (A) (A) (A) (A) (A) (A) (A) (A)
                 (A) (A) (A) (A) (A) (A) (A) (A) (A) (A) (A) (A)
                 (A) (A) (A) (A) (A) (A) (A) (A) (A) (A) (A) (A)
                 (A) (A) (A) (A) (A) (A) (A) (A) (A) (A) (A) (A)
                 (A) (A) (A) (A) (A) (A) (A) (A) (A) (A) (A) (A)
                 (A) (A) (A) (A) (A) (A) (A) (A) (A) (A) (A) (A)
                 (A) (A) (A) (A) (A) (A) (A) (A) (A) (A) (A) (A)
                 (A) (A) (A) (A) (A) (A) (A) (A) (A) (A) (A) (A)
                 (A) (A) (A) (A) (A) (A) (A) (A) (A) (A) (A) (A)
                 (A) (A) (A) (A) (A) (A) (A) (A) (A) (A) (A) (A)
                 (A) (A) (A) (A) (A) (A) (A) (A) (A) (A) (A) (A)
                 (A) (A) (A) (A) (A) (A) (A) (A) (A) (A) (A) (A)
                 (A) (A) (A) (A) (A) (A) (A) (A) (A) (A) (A) (A)
                 (A) (A) (A) (A) (A) (A) (A) (A) (A) (A) (A) (A)
                 (A) (A) (A) (A) (A) (A) (A) (A) (A) (A) (A) (A)
                 (A) (A) (A) (A) (A) (A) (A) (A) (A) (A) (A) (A)
                 (A) (A) (A) (A) (A) (A) (A) (A) (A) (A) (A) (A)
                 (A) (A) (A) (A) (A) (A) (A) (A) (A) (A) (A) (A)
                 (A) (A) (A) (A) (A) (A) (A) (A) (A) (A) (A) (A)
                 (A) (A) (A) (A) (A) (A) (A) (A) (A) (A) (A) (A)
                 (A) (A) (A) (A) (A) (A) (A) (A) (A) (A) (A) (A)
                 (A) (A) (A) (A) (A) (A) (A) (A) (A) (A) (A) (A)
                 (A) (A) (A) (A) (A) (A) (A) (A) (A) (A) (A) (A)
                 (A) (A) (A) (A) (A) (A) (A) (A) (A) (A) (A) (A)
                 (A) (A) (A) (A) (A) (A) (A) (A) (A) (A) (A) (A)
                 (A) (A) (A) (A) (A) (A) (A) (A) (A) (A) (A) (A)
                 (A) (A) (A) (A) (A) (A) (A) (A) (A) (A) (A) (A)
                 (A) (A) (A) (A) (A) (A) (A) (A) (A) (A) (A) (A)
                 (A) (A) (A) (A) (A) (A) (A) (A) (A) (A) (A) (A)
                 (A) (A) (A) (A) (A) (A) (A) (A) (A) (A) (A) (A)
                 (A) (A) (A) (A) (A) (A) (A) (A) (A) (A) (A) (A)
                 (A) (A) (A) (A) (A) (A) (A) (A) (A) (A) (A) (A)
                 (A) (A) (A) (A) (A) (A) (A) (A) (A) (A) (A) (A)
                 (A) (A) (A) (A) (A) (A) (A) (A) (A) (A) (A) (A)
                 (A) (A) (A) (A) (A) (A) (A) (A) (A) (A) (A) (A)
                 (A) (A) (A) (A) (A) (A) (A) (A) (A) (A) (A) (A)
                 (A) (A) (A) (A) (A) (A) (A) (A) (A) (A) (A) (A)
                 (A) (A) (A) (A) (A) (A) (A) (A) (A) (A) (A) (A)
                 (A) (A) (A) (A) (A) (A) (A) (A) (A) (A) (A) (A)
                 (A) (A) (A) (A) (A) (A) (A) (A) (A) (A) (A) (A)
                 (A) (A) (A) (A) (A) (A) (A) (A) (A) (A) (A) (A)
                 (A) (A) (A) (A) (A) (A) (A) (A) (A) (A) (A) (A)
                 (A) (A) (A) (A) (A) (A) (A) (A) (A) (A) (A) (A)
                 (A) (A) (A) (A) (A) (A) (A) (A) (A) (A) (A) (A)
                 (A) (A) (A) (A) (A) (A) (A) (A) (A) (A) (A) (A)
                 (A) (A) (A) (A) (A) (A) (A) (A) (A) (A) (A) (A)
                 (A) (A) (A) (A) (A) (A) (A) (A) (A) (A) (A) (A)
                 (A) (A) (A) (A) (A) (A) (A) (A) (A) (A) (A) (A)
                 (A) (A) (A) (A) (A) (A) (A) (A) (A) (A) (A) (A)
                 (A) (A) (A) (A) (A) (A) (A) (A) (A) (A) (A) (A)
                 (A) (A) (A) (A) (A) (A) (A) (A) (A) (A) (A) (A)
                 (A) (A) (A) (A) (A) (A) (A) (A) (A) (A) (A) (A)
                 (A) (A) (A) (A) (A) (A) (A) (A) (A) (A) (A) (A)
                 (A) (A) (A) (A) (A) (A) (A) (A) (A) (A) (A) (A)
                 (A) (A) (A) (A) (A) (A) (A) (A) (A) (A) (A) (A)
                 (A) (A) (A) (A) (A) (A) (A) (A) (A) (A) (A) (A)
                 (A) (A) (A) (A) (A) (A) (A) (A) (A) (A) (A) (A)
                 (A) (A) (A) (A) (A) (A) (A) (A) (A) (A) (A) (A)
                 (A) (A) (A) (A) (A) (A) (A) (A) (A) (A) (A) (A)
                 (A) (A) (A) (A) (A) (A) (A) (A) (A) (A) (A) (A)
                 (A) (A) (A) (A) (A) (A) (A) (A) (A) (A) (A) (A)
                 (A) (A) (A) (A) (A) (A) (A) (A) (A) (A) (A) (A)
                 (A) (A) (A) (A) (A) (A) (A) (A) (A) (A) (A) (A)
                 (A) (A) (A) (A) (A) (A) (A) (A) (A) (A) (A) (A)
                 (A) (A) (A) (A) (A) (A) (A) (A) (A) (A) (A) (A)
                 (A) (A) (A) (A) (A) (A) (A) (A) (A) (A) (A) (A)
                 (A) (A) (A) (A) (A) (A) (A) (A) (A) (A) (A) (A)
                 (A) (A) (A) (A) (A) (A) (A) (A) (A) (A) (A) (A)
                 (A) (A) (A) (A) (A) (A) (A) (A) (A) (A) (A) (A)
                 (A) (A) (A) (A) (A) (A) (A) (A) (A) (A) (A) (A)
                 (A) (A) (A) (A) (A) (A) (A) (A) (A) (A) (A) (A)
                 (A) (A) (A) (A) (A) (A) (A) (A) (A) (A) (A) (A)
                 (A) (A) (A) (A) (A) (A) (A) (A) (A) (A) (A) (A)
                 (A) (A) (A) (A) (A) (A) (A) (A) (A) (A) (A) (A)
                 (A) (A) (A) (A) (A) (A) (A) (A) (A) (A) (A) (A)
                 (A) (A) (A) (A) (A) (A) (A) (A) (A) (A) (A) (A)
                 (A) (A) (A) (A) (A) (A) (A) (A) (A) (A) (A) (A)
                 (A) (A) (A) (A) (A) (A) (A) (A) (A) (A) (A) (A)
                 (A) (A) (A) (A) (A) (A) (A) (A) (A) (A) (A) (A)
                 (A) (A) (A) (A) (A) (A) (A) (A) (A) (A) (A) (A)
                 (A) (A) (A) (A) (A)
 The electronic state is 6-A.
 Alpha  occ. eigenvalues -- -256.46464 -30.29412 -26.11042 -26.11030 -26.10981
 Alpha  occ. eigenvalues --  -19.28025 -19.27032 -19.19533 -19.19012 -14.46157
 Alpha  occ. eigenvalues --  -14.45909 -14.41328 -14.41145 -14.40781 -14.40349
 Alpha  occ. eigenvalues --  -14.40340 -14.40026 -10.36573 -10.36436 -10.30289
 Alpha  occ. eigenvalues --  -10.29944 -10.29615 -10.29046 -10.28401 -10.28378
 Alpha  occ. eigenvalues --  -10.28077 -10.27997 -10.27979 -10.27754 -10.27731
 Alpha  occ. eigenvalues --  -10.27673 -10.27338 -10.25427 -10.25415 -10.25174
 Alpha  occ. eigenvalues --  -10.25173 -10.25096 -10.24944 -10.24932 -10.24850
 Alpha  occ. eigenvalues --  -10.24621 -10.24386 -10.24343 -10.24234 -10.24211
 Alpha  occ. eigenvalues --  -10.24203 -10.24183 -10.24167 -10.24146 -10.24082
 Alpha  occ. eigenvalues --  -10.23871 -10.23609 -10.23282 -10.23041 -10.22724
 Alpha  occ. eigenvalues --  -10.22637 -10.22552 -10.22501 -10.20540  -3.72127
 Alpha  occ. eigenvalues --   -2.48293  -2.48205  -2.48066  -1.18567  -1.17826
 Alpha  occ. eigenvalues --   -1.08045  -1.07907  -1.04386  -1.03985  -1.01266
 Alpha  occ. eigenvalues --   -1.00354  -0.99960  -0.99119  -0.93331  -0.93193
 Alpha  occ. eigenvalues --   -0.88213  -0.86884  -0.86228  -0.86025  -0.85733
 Alpha  occ. eigenvalues --   -0.84150  -0.83463  -0.82411  -0.82170  -0.81855
 Alpha  occ. eigenvalues --   -0.80999  -0.80641  -0.78910  -0.78242  -0.76523
 Alpha  occ. eigenvalues --   -0.75896  -0.74511  -0.73731  -0.73639  -0.73477
 Alpha  occ. eigenvalues --   -0.72052  -0.71979  -0.70996  -0.68846  -0.68387
 Alpha  occ. eigenvalues --   -0.67038  -0.66936  -0.66621  -0.66364  -0.65028
 Alpha  occ. eigenvalues --   -0.64478  -0.63684  -0.63458  -0.62014  -0.60815
 Alpha  occ. eigenvalues --   -0.58518  -0.58291  -0.58217  -0.57862  -0.57409
 Alpha  occ. eigenvalues --   -0.57056  -0.55621  -0.55170  -0.54774  -0.54579
 Alpha  occ. eigenvalues --   -0.53920  -0.53237  -0.52912  -0.52597  -0.52187
 Alpha  occ. eigenvalues --   -0.51561  -0.51484  -0.51440  -0.50586  -0.50337
 Alpha  occ. eigenvalues --   -0.50147  -0.49824  -0.49563  -0.49316  -0.49142
 Alpha  occ. eigenvalues --   -0.48665  -0.48384  -0.48132  -0.47969  -0.47835
 Alpha  occ. eigenvalues --   -0.47691  -0.47403  -0.47212  -0.47011  -0.46233
 Alpha  occ. eigenvalues --   -0.46084  -0.45766  -0.45503  -0.45404  -0.45135
 Alpha  occ. eigenvalues --   -0.44982  -0.44835  -0.44422  -0.44264  -0.44109
 Alpha  occ. eigenvalues --   -0.44021  -0.43861  -0.43619  -0.43472  -0.43384
 Alpha  occ. eigenvalues --   -0.42849  -0.42704  -0.42669  -0.42386  -0.42144
 Alpha  occ. eigenvalues --   -0.41924  -0.41685  -0.41406  -0.41237  -0.40966
 Alpha  occ. eigenvalues --   -0.40725  -0.40352  -0.39834  -0.39505  -0.39436
 Alpha  occ. eigenvalues --   -0.38908  -0.38692  -0.38387  -0.38204  -0.37593
 Alpha  occ. eigenvalues --   -0.37327  -0.37017  -0.36517  -0.36260  -0.36007
 Alpha  occ. eigenvalues --   -0.35721  -0.34370  -0.34277  -0.34105  -0.32995
 Alpha  occ. eigenvalues --   -0.32751  -0.30954  -0.30360  -0.29446  -0.29259
 Alpha  occ. eigenvalues --   -0.28900  -0.27481  -0.27037  -0.26787  -0.26485
 Alpha  occ. eigenvalues --   -0.26242  -0.25971  -0.25589  -0.24863  -0.22805
 Alpha  occ. eigenvalues --   -0.22182  -0.21716
 Alpha virt. eigenvalues --   -0.10810  -0.10156  -0.05249  -0.02384  -0.01861
 Alpha virt. eigenvalues --   -0.01655  -0.01089  -0.00107   0.00074   0.00389
 Alpha virt. eigenvalues --    0.01256   0.01488   0.02478   0.02554   0.03155
 Alpha virt. eigenvalues --    0.03476   0.03782   0.03906   0.04212   0.04552
 Alpha virt. eigenvalues --    0.04681   0.04817   0.05343   0.05966   0.06401
 Alpha virt. eigenvalues --    0.06560   0.06587   0.06920   0.07107   0.07487
 Alpha virt. eigenvalues --    0.07755   0.08262   0.08387   0.08717   0.08949
 Alpha virt. eigenvalues --    0.09089   0.09156   0.09480   0.09918   0.10031
 Alpha virt. eigenvalues --    0.10326   0.10747   0.10803   0.11070   0.11239
 Alpha virt. eigenvalues --    0.11572   0.11731   0.12086   0.12215   0.12373
 Alpha virt. eigenvalues --    0.12606   0.12616   0.12719   0.13114   0.13354
 Alpha virt. eigenvalues --    0.13555   0.13783   0.13864   0.13928   0.14108
 Alpha virt. eigenvalues --    0.14329   0.14531   0.14713   0.14977   0.15135
 Alpha virt. eigenvalues --    0.15213   0.15529   0.15685   0.15791   0.15998
 Alpha virt. eigenvalues --    0.16219   0.16503   0.16558   0.16740   0.16915
 Alpha virt. eigenvalues --    0.17076   0.17442   0.17726   0.18088   0.18200
 Alpha virt. eigenvalues --    0.18335   0.18533   0.18733   0.18939   0.19115
 Alpha virt. eigenvalues --    0.19376   0.19505   0.19813   0.19974   0.20078
 Alpha virt. eigenvalues --    0.20145   0.20210   0.20485   0.20559   0.20888
 Alpha virt. eigenvalues --    0.21122   0.21466   0.21658   0.21763   0.21931
 Alpha virt. eigenvalues --    0.22335   0.22465   0.22729   0.23090   0.23145
 Alpha virt. eigenvalues --    0.23342   0.23454   0.23631   0.23948   0.24151
 Alpha virt. eigenvalues --    0.24323   0.24730   0.24897   0.24966   0.25321
 Alpha virt. eigenvalues --    0.25542   0.25755   0.25875   0.26162   0.26300
 Alpha virt. eigenvalues --    0.26677   0.26825   0.26993   0.27345   0.27384
 Alpha virt. eigenvalues --    0.27613   0.27719   0.27957   0.28068   0.28192
 Alpha virt. eigenvalues --    0.28331   0.28573   0.28760   0.29061   0.29555
 Alpha virt. eigenvalues --    0.29641   0.29760   0.30104   0.30479   0.30790
 Alpha virt. eigenvalues --    0.30950   0.30993   0.31098   0.31448   0.31520
 Alpha virt. eigenvalues --    0.31921   0.32450   0.32562   0.32720   0.32776
 Alpha virt. eigenvalues --    0.33001   0.33293   0.33626   0.33790   0.33957
 Alpha virt. eigenvalues --    0.34315   0.34569   0.34747   0.34943   0.34992
 Alpha virt. eigenvalues --    0.35145   0.35573   0.35789   0.35882   0.36155
 Alpha virt. eigenvalues --    0.36340   0.36668   0.36863   0.36942   0.37023
 Alpha virt. eigenvalues --    0.37359   0.37658   0.37823   0.38053   0.38175
 Alpha virt. eigenvalues --    0.38253   0.38378   0.38808   0.38881   0.38977
 Alpha virt. eigenvalues --    0.39122   0.39390   0.39474   0.39544   0.40034
 Alpha virt. eigenvalues --    0.40106   0.40316   0.40460   0.40538   0.40794
 Alpha virt. eigenvalues --    0.41101   0.41265   0.41300   0.41638   0.41690
 Alpha virt. eigenvalues --    0.41913   0.42159   0.42429   0.42445   0.42463
 Alpha virt. eigenvalues --    0.42768   0.42931   0.42994   0.43099   0.43270
 Alpha virt. eigenvalues --    0.43732   0.43774   0.43897   0.44103   0.44294
 Alpha virt. eigenvalues --    0.44465   0.44743   0.44843   0.44930   0.45396
 Alpha virt. eigenvalues --    0.45417   0.45674   0.45846   0.46059   0.46155
 Alpha virt. eigenvalues --    0.46285   0.46469   0.46663   0.46763   0.46867
 Alpha virt. eigenvalues --    0.46940   0.47223   0.47494   0.47606   0.47910
 Alpha virt. eigenvalues --    0.48091   0.48368   0.48480   0.48654   0.48784
 Alpha virt. eigenvalues --    0.49135   0.49163   0.49433   0.49669   0.49821
 Alpha virt. eigenvalues --    0.50042   0.50112   0.50206   0.50500   0.50593
 Alpha virt. eigenvalues --    0.50953   0.51081   0.51272   0.51471   0.51898
 Alpha virt. eigenvalues --    0.51957   0.52052   0.52117   0.52225   0.52441
 Alpha virt. eigenvalues --    0.52761   0.52870   0.53239   0.53336   0.53595
 Alpha virt. eigenvalues --    0.53691   0.53886   0.54062   0.54368   0.54440
 Alpha virt. eigenvalues --    0.54545   0.54640   0.55190   0.55428   0.55460
 Alpha virt. eigenvalues --    0.55643   0.55696   0.55925   0.56196   0.56364
 Alpha virt. eigenvalues --    0.56467   0.56730   0.56842   0.57067   0.57164
 Alpha virt. eigenvalues --    0.57396   0.57591   0.57826   0.58137   0.58267
 Alpha virt. eigenvalues --    0.58544   0.58766   0.58854   0.59413   0.59512
 Alpha virt. eigenvalues --    0.59763   0.59875   0.60320   0.60458   0.60712
 Alpha virt. eigenvalues --    0.60759   0.60966   0.61204   0.61737   0.61839
 Alpha virt. eigenvalues --    0.62084   0.62504   0.62606   0.63134   0.63317
 Alpha virt. eigenvalues --    0.63540   0.63673   0.63777   0.64092   0.64339
 Alpha virt. eigenvalues --    0.64484   0.64684   0.65257   0.65381   0.65584
 Alpha virt. eigenvalues --    0.65640   0.65949   0.66024   0.66741   0.67054
 Alpha virt. eigenvalues --    0.67081   0.67326   0.67594   0.67805   0.68096
 Alpha virt. eigenvalues --    0.68416   0.68570   0.68914   0.69033   0.69235
 Alpha virt. eigenvalues --    0.69903   0.70295   0.70375   0.70623   0.70738
 Alpha virt. eigenvalues --    0.71378   0.71422   0.71626   0.71906   0.72052
 Alpha virt. eigenvalues --    0.72339   0.72682   0.72929   0.73170   0.73299
 Alpha virt. eigenvalues --    0.73534   0.73864   0.74270   0.74457   0.74927
 Alpha virt. eigenvalues --    0.75255   0.75424   0.75700   0.75785   0.76203
 Alpha virt. eigenvalues --    0.76579   0.76804   0.76921   0.77092   0.77205
 Alpha virt. eigenvalues --    0.77640   0.77932   0.78137   0.78430   0.78874
 Alpha virt. eigenvalues --    0.79067   0.79571   0.79794   0.80079   0.80360
 Alpha virt. eigenvalues --    0.80490   0.80890   0.81246   0.81462   0.81688
 Alpha virt. eigenvalues --    0.82098   0.82534   0.82641   0.82785   0.83192
 Alpha virt. eigenvalues --    0.83452   0.83584   0.83875   0.84092   0.84526
 Alpha virt. eigenvalues --    0.84796   0.84987   0.85253   0.85531   0.86044
 Alpha virt. eigenvalues --    0.86161   0.86456   0.86577   0.87024   0.87449
 Alpha virt. eigenvalues --    0.87682   0.88168   0.88289   0.88560   0.89165
 Alpha virt. eigenvalues --    0.89242   0.89568   0.90047   0.90083   0.90533
 Alpha virt. eigenvalues --    0.90682   0.90846   0.91052   0.91496   0.91734
 Alpha virt. eigenvalues --    0.91864   0.92115   0.92599   0.92879   0.93084
 Alpha virt. eigenvalues --    0.93337   0.93811   0.93917   0.94077   0.94240
 Alpha virt. eigenvalues --    0.94430   0.94706   0.94907   0.95507   0.95628
 Alpha virt. eigenvalues --    0.95920   0.95969   0.96509   0.96836   0.97140
 Alpha virt. eigenvalues --    0.97388   0.97415   0.97961   0.98275   0.98324
 Alpha virt. eigenvalues --    0.98518   0.98711   0.99325   0.99455   0.99828
 Alpha virt. eigenvalues --    0.99986   1.00306   1.00856   1.01050   1.01313
 Alpha virt. eigenvalues --    1.01470   1.01706   1.01905   1.02162   1.02264
 Alpha virt. eigenvalues --    1.02739   1.02943   1.03320   1.03853   1.04173
 Alpha virt. eigenvalues --    1.04359   1.04811   1.05179   1.05216   1.05430
 Alpha virt. eigenvalues --    1.05530   1.05963   1.06430   1.06674   1.06977
 Alpha virt. eigenvalues --    1.07328   1.07922   1.08086   1.08412   1.08925
 Alpha virt. eigenvalues --    1.09065   1.09347   1.09787   1.10172   1.10306
 Alpha virt. eigenvalues --    1.10556   1.10764   1.11101   1.11333   1.11754
 Alpha virt. eigenvalues --    1.12150   1.12206   1.12913   1.13095   1.13281
 Alpha virt. eigenvalues --    1.13292   1.13548   1.14088   1.14336   1.14635
 Alpha virt. eigenvalues --    1.14856   1.14927   1.15444   1.15577   1.16046
 Alpha virt. eigenvalues --    1.16494   1.16744   1.16872   1.17624   1.18038
 Alpha virt. eigenvalues --    1.18159   1.18302   1.18869   1.19189   1.19265
 Alpha virt. eigenvalues --    1.19705   1.20005   1.20401   1.20603   1.20884
 Alpha virt. eigenvalues --    1.21350   1.21613   1.22229   1.22440   1.23133
 Alpha virt. eigenvalues --    1.23329   1.23611   1.23850   1.24021   1.24526
 Alpha virt. eigenvalues --    1.24590   1.25116   1.25327   1.25682   1.26384
 Alpha virt. eigenvalues --    1.26921   1.27096   1.27333   1.27457   1.28159
 Alpha virt. eigenvalues --    1.28543   1.28728   1.29399   1.29626   1.29775
 Alpha virt. eigenvalues --    1.30187   1.30364   1.30529   1.31082   1.31348
 Alpha virt. eigenvalues --    1.31590   1.31869   1.32253   1.32695   1.33110
 Alpha virt. eigenvalues --    1.33284   1.33969   1.34087   1.34510   1.34776
 Alpha virt. eigenvalues --    1.35002   1.35525   1.35896   1.36117   1.36354
 Alpha virt. eigenvalues --    1.36960   1.37200   1.37605   1.37780   1.38313
 Alpha virt. eigenvalues --    1.38482   1.39275   1.39644   1.39979   1.40510
 Alpha virt. eigenvalues --    1.40877   1.41196   1.41897   1.42003   1.42432
 Alpha virt. eigenvalues --    1.42466   1.42643   1.42964   1.43307   1.43532
 Alpha virt. eigenvalues --    1.44047   1.44619   1.44768   1.44995   1.45391
 Alpha virt. eigenvalues --    1.45742   1.45766   1.46214   1.46333   1.46899
 Alpha virt. eigenvalues --    1.47013   1.47302   1.47460   1.47919   1.48215
 Alpha virt. eigenvalues --    1.48599   1.49104   1.49333   1.50066   1.50152
 Alpha virt. eigenvalues --    1.50427   1.50770   1.51046   1.51222   1.51602
 Alpha virt. eigenvalues --    1.51891   1.52064   1.52190   1.52352   1.52715
 Alpha virt. eigenvalues --    1.53023   1.53413   1.53590   1.53701   1.53884
 Alpha virt. eigenvalues --    1.54227   1.54369   1.54591   1.54842   1.55150
 Alpha virt. eigenvalues --    1.55211   1.55452   1.55903   1.56081   1.56305
 Alpha virt. eigenvalues --    1.56676   1.57155   1.57293   1.57538   1.57673
 Alpha virt. eigenvalues --    1.58160   1.58371   1.58563   1.58869   1.59011
 Alpha virt. eigenvalues --    1.59340   1.59751   1.59828   1.60116   1.60421
 Alpha virt. eigenvalues --    1.60727   1.60886   1.60971   1.61484   1.61693
 Alpha virt. eigenvalues --    1.62055   1.62157   1.62260   1.62565   1.62799
 Alpha virt. eigenvalues --    1.63128   1.63147   1.63514   1.63895   1.64029
 Alpha virt. eigenvalues --    1.64281   1.64374   1.64776   1.65231   1.65410
 Alpha virt. eigenvalues --    1.65695   1.65990   1.66019   1.66265   1.66638
 Alpha virt. eigenvalues --    1.66740   1.67089   1.67341   1.67771   1.67860
 Alpha virt. eigenvalues --    1.68026   1.68191   1.68242   1.68976   1.69261
 Alpha virt. eigenvalues --    1.69454   1.69528   1.70425   1.70486   1.70749
 Alpha virt. eigenvalues --    1.71148   1.71338   1.71611   1.71875   1.72055
 Alpha virt. eigenvalues --    1.72234   1.72567   1.72884   1.73283   1.73414
 Alpha virt. eigenvalues --    1.73728   1.74179   1.74633   1.74869   1.75244
 Alpha virt. eigenvalues --    1.75511   1.76205   1.76468   1.76798   1.77238
 Alpha virt. eigenvalues --    1.77677   1.78109   1.78218   1.78914   1.79146
 Alpha virt. eigenvalues --    1.79649   1.79885   1.79949   1.80166   1.80770
 Alpha virt. eigenvalues --    1.80958   1.81309   1.81670   1.81843   1.82211
 Alpha virt. eigenvalues --    1.82481   1.82575   1.82635   1.83190   1.83822
 Alpha virt. eigenvalues --    1.83971   1.84434   1.84726   1.84929   1.85461
 Alpha virt. eigenvalues --    1.85712   1.85992   1.86236   1.86497   1.87105
 Alpha virt. eigenvalues --    1.87308   1.87854   1.88025   1.88323   1.88831
 Alpha virt. eigenvalues --    1.89246   1.89321   1.89621   1.90960   1.91107
 Alpha virt. eigenvalues --    1.91263   1.92018   1.92319   1.92684   1.93084
 Alpha virt. eigenvalues --    1.93736   1.93844   1.94226   1.94378   1.94489
 Alpha virt. eigenvalues --    1.95399   1.95556   1.95862   1.96106   1.96266
 Alpha virt. eigenvalues --    1.96525   1.96894   1.97053   1.97225   1.97567
 Alpha virt. eigenvalues --    1.97959   1.98126   1.98443   1.99099   1.99387
 Alpha virt. eigenvalues --    1.99860   2.00141   2.00492   2.01002   2.01048
 Alpha virt. eigenvalues --    2.01229   2.01422   2.01890   2.02254   2.02454
 Alpha virt. eigenvalues --    2.02651   2.03636   2.03948   2.04501   2.05066
 Alpha virt. eigenvalues --    2.06034   2.06115   2.06202   2.06673   2.06872
 Alpha virt. eigenvalues --    2.07292   2.07615   2.07742   2.08340   2.08956
 Alpha virt. eigenvalues --    2.09258   2.09521   2.09744   2.10006   2.10453
 Alpha virt. eigenvalues --    2.10870   2.11015   2.11509   2.11918   2.12033
 Alpha virt. eigenvalues --    2.12320   2.12437   2.12753   2.13163   2.13363
 Alpha virt. eigenvalues --    2.13766   2.14028   2.14558   2.14698   2.14911
 Alpha virt. eigenvalues --    2.15385   2.16009   2.16232   2.16277   2.16758
 Alpha virt. eigenvalues --    2.16882   2.17355   2.17478   2.17740   2.18238
 Alpha virt. eigenvalues --    2.18573   2.18759   2.18984   2.19153   2.20280
 Alpha virt. eigenvalues --    2.20727   2.21008   2.21313   2.21428   2.21915
 Alpha virt. eigenvalues --    2.22165   2.22522   2.22796   2.23497   2.23897
 Alpha virt. eigenvalues --    2.24431   2.24669   2.25108   2.25478   2.25776
 Alpha virt. eigenvalues --    2.26215   2.26493   2.26857   2.27289   2.27752
 Alpha virt. eigenvalues --    2.28033   2.28617   2.28911   2.29171   2.29524
 Alpha virt. eigenvalues --    2.30116   2.30457   2.30567   2.31160   2.31655
 Alpha virt. eigenvalues --    2.31937   2.31993   2.32350   2.32578   2.33640
 Alpha virt. eigenvalues --    2.33999   2.34091   2.34439   2.34804   2.35236
 Alpha virt. eigenvalues --    2.35560   2.35978   2.36159   2.36876   2.36979
 Alpha virt. eigenvalues --    2.37102   2.37290   2.37544   2.37802   2.38179
 Alpha virt. eigenvalues --    2.38346   2.38563   2.39173   2.39456   2.39616
 Alpha virt. eigenvalues --    2.40083   2.40156   2.40763   2.40970   2.41205
 Alpha virt. eigenvalues --    2.41663   2.41939   2.42124   2.42262   2.42907
 Alpha virt. eigenvalues --    2.43007   2.43235   2.44023   2.44176   2.44599
 Alpha virt. eigenvalues --    2.44822   2.44972   2.45643   2.46226   2.46681
 Alpha virt. eigenvalues --    2.46842   2.47137   2.47666   2.48002   2.48845
 Alpha virt. eigenvalues --    2.49222   2.49452   2.49671   2.50041   2.50410
 Alpha virt. eigenvalues --    2.50887   2.51293   2.51603   2.51758   2.52104
 Alpha virt. eigenvalues --    2.52557   2.53174   2.53331   2.53736   2.53837
 Alpha virt. eigenvalues --    2.54494   2.54886   2.55052   2.55555   2.55795
 Alpha virt. eigenvalues --    2.56253   2.56435   2.56671   2.56781   2.56918
 Alpha virt. eigenvalues --    2.57488   2.58117   2.58233   2.58420   2.58786
 Alpha virt. eigenvalues --    2.59102   2.59372   2.59464   2.59662   2.59977
 Alpha virt. eigenvalues --    2.60371   2.60677   2.61416   2.61815   2.62105
 Alpha virt. eigenvalues --    2.62306   2.62607   2.62848   2.62959   2.63377
 Alpha virt. eigenvalues --    2.63790   2.64236   2.64783   2.64901   2.65036
 Alpha virt. eigenvalues --    2.65669   2.66044   2.66126   2.66499   2.66609
 Alpha virt. eigenvalues --    2.67159   2.67487   2.67734   2.67831   2.68336
 Alpha virt. eigenvalues --    2.68591   2.68957   2.69261   2.69459   2.70006
 Alpha virt. eigenvalues --    2.70506   2.70962   2.71554   2.71864   2.72100
 Alpha virt. eigenvalues --    2.72426   2.72687   2.73021   2.73120   2.73256
 Alpha virt. eigenvalues --    2.73437   2.74083   2.74584   2.74826   2.74854
 Alpha virt. eigenvalues --    2.75681   2.75892   2.75911   2.76318   2.76703
 Alpha virt. eigenvalues --    2.76791   2.77286   2.77714   2.77972   2.78544
 Alpha virt. eigenvalues --    2.78649   2.79114   2.79164   2.79467   2.79565
 Alpha virt. eigenvalues --    2.80047   2.80475   2.80818   2.81137   2.81441
 Alpha virt. eigenvalues --    2.81995   2.82244   2.82511   2.82823   2.83224
 Alpha virt. eigenvalues --    2.83264   2.83879   2.84107   2.84289   2.84754
 Alpha virt. eigenvalues --    2.84986   2.85376   2.85410   2.85745   2.86044
 Alpha virt. eigenvalues --    2.86649   2.86771   2.86911   2.87174   2.87796
 Alpha virt. eigenvalues --    2.87947   2.88478   2.88731   2.88987   2.89209
 Alpha virt. eigenvalues --    2.89314   2.89611   2.90078   2.90686   2.90922
 Alpha virt. eigenvalues --    2.91109   2.91378   2.91650   2.91729   2.92325
 Alpha virt. eigenvalues --    2.92503   2.92689   2.93020   2.93276   2.93409
 Alpha virt. eigenvalues --    2.93831   2.94064   2.94262   2.94630   2.94940
 Alpha virt. eigenvalues --    2.95398   2.96012   2.96222   2.96345   2.96531
 Alpha virt. eigenvalues --    2.96985   2.97244   2.97467   2.97776   2.97912
 Alpha virt. eigenvalues --    2.98095   2.98449   2.98821   2.99161   2.99370
 Alpha virt. eigenvalues --    2.99514   2.99852   2.99984   3.00262   3.00723
 Alpha virt. eigenvalues --    3.00804   3.01152   3.01285   3.01809   3.02082
 Alpha virt. eigenvalues --    3.02479   3.02790   3.03147   3.03450   3.03506
 Alpha virt. eigenvalues --    3.03744   3.04033   3.04294   3.04476   3.04811
 Alpha virt. eigenvalues --    3.05153   3.05308   3.05393   3.05766   3.06021
 Alpha virt. eigenvalues --    3.06368   3.06661   3.06899   3.07269   3.07698
 Alpha virt. eigenvalues --    3.07967   3.08348   3.08428   3.08907   3.09026
 Alpha virt. eigenvalues --    3.09244   3.09474   3.09691   3.09891   3.10252
 Alpha virt. eigenvalues --    3.10652   3.10860   3.10974   3.11373   3.11407
 Alpha virt. eigenvalues --    3.11451   3.11904   3.12495   3.12623   3.12887
 Alpha virt. eigenvalues --    3.13170   3.13380   3.13959   3.14052   3.14281
 Alpha virt. eigenvalues --    3.14415   3.14770   3.15107   3.15292   3.15642
 Alpha virt. eigenvalues --    3.15822   3.16170   3.16476   3.16560   3.17199
 Alpha virt. eigenvalues --    3.17277   3.17458   3.17709   3.17877   3.18181
 Alpha virt. eigenvalues --    3.18476   3.18507   3.18891   3.19153   3.19530
 Alpha virt. eigenvalues --    3.19630   3.20004   3.20139   3.20430   3.20693
 Alpha virt. eigenvalues --    3.20999   3.21172   3.21486   3.21947   3.22117
 Alpha virt. eigenvalues --    3.22200   3.22769   3.22924   3.23231   3.23487
 Alpha virt. eigenvalues --    3.23710   3.23935   3.24078   3.24239   3.24366
 Alpha virt. eigenvalues --    3.24696   3.24937   3.25401   3.25548   3.25780
 Alpha virt. eigenvalues --    3.25969   3.26147   3.26316   3.26758   3.26916
 Alpha virt. eigenvalues --    3.27219   3.27695   3.27810   3.28184   3.28369
 Alpha virt. eigenvalues --    3.28469   3.28785   3.29255   3.29323   3.29609
 Alpha virt. eigenvalues --    3.29707   3.30050   3.30326   3.30498   3.30577
 Alpha virt. eigenvalues --    3.30967   3.31180   3.31518   3.31626   3.31718
 Alpha virt. eigenvalues --    3.32054   3.32460   3.32648   3.32953   3.33084
 Alpha virt. eigenvalues --    3.33652   3.33707   3.33814   3.34246   3.34513
 Alpha virt. eigenvalues --    3.34869   3.35024   3.35423   3.35465   3.35720
 Alpha virt. eigenvalues --    3.36113   3.36240   3.36383   3.36752   3.37024
 Alpha virt. eigenvalues --    3.37420   3.37456   3.37999   3.38080   3.38370
 Alpha virt. eigenvalues --    3.38676   3.38902   3.39183   3.39470   3.39651
 Alpha virt. eigenvalues --    3.39955   3.40181   3.40317   3.40496   3.40946
 Alpha virt. eigenvalues --    3.41172   3.41310   3.41537   3.41883   3.41980
 Alpha virt. eigenvalues --    3.42344   3.42572   3.42721   3.43092   3.43337
 Alpha virt. eigenvalues --    3.43592   3.43635   3.43884   3.44375   3.44535
 Alpha virt. eigenvalues --    3.44779   3.45124   3.45543   3.45832   3.46210
 Alpha virt. eigenvalues --    3.46500   3.46512   3.46951   3.47237   3.47946
 Alpha virt. eigenvalues --    3.48329   3.48632   3.48858   3.49017   3.49261
 Alpha virt. eigenvalues --    3.49667   3.49948   3.50230   3.50319   3.50785
 Alpha virt. eigenvalues --    3.50821   3.51046   3.51714   3.52102   3.52183
 Alpha virt. eigenvalues --    3.52425   3.52946   3.53390   3.53599   3.54218
 Alpha virt. eigenvalues --    3.54634   3.54744   3.54861   3.55305   3.55647
 Alpha virt. eigenvalues --    3.56206   3.56519   3.56610   3.56822   3.57319
 Alpha virt. eigenvalues --    3.57441   3.57684   3.58056   3.58213   3.58493
 Alpha virt. eigenvalues --    3.58943   3.59571   3.59836   3.60171   3.60347
 Alpha virt. eigenvalues --    3.60867   3.61197   3.61314   3.62046   3.62277
 Alpha virt. eigenvalues --    3.62516   3.62671   3.63116   3.63342   3.64029
 Alpha virt. eigenvalues --    3.64384   3.64629   3.64737   3.64852   3.65643
 Alpha virt. eigenvalues --    3.66170   3.66402   3.66632   3.66995   3.67230
 Alpha virt. eigenvalues --    3.67644   3.67911   3.68047   3.68141   3.69024
 Alpha virt. eigenvalues --    3.69279   3.69842   3.70210   3.70386   3.70689
 Alpha virt. eigenvalues --    3.70919   3.71587   3.71915   3.72554   3.72713
 Alpha virt. eigenvalues --    3.73132   3.73202   3.73436   3.73873   3.74059
 Alpha virt. eigenvalues --    3.74595   3.74981   3.75135   3.75354   3.75879
 Alpha virt. eigenvalues --    3.76339   3.76434   3.76895   3.76972   3.77347
 Alpha virt. eigenvalues --    3.78019   3.78455   3.78992   3.79500   3.79678
 Alpha virt. eigenvalues --    3.80480   3.80775   3.81380   3.81609   3.82201
 Alpha virt. eigenvalues --    3.83196   3.83465   3.83587   3.83922   3.84601
 Alpha virt. eigenvalues --    3.85015   3.85234   3.85627   3.86105   3.86686
 Alpha virt. eigenvalues --    3.86930   3.87267   3.88106   3.88518   3.89024
 Alpha virt. eigenvalues --    3.89309   3.89746   3.90305   3.90684   3.91361
 Alpha virt. eigenvalues --    3.91750   3.91933   3.92308   3.92495   3.93088
 Alpha virt. eigenvalues --    3.93538   3.94513   3.94723   3.94912   3.95302
 Alpha virt. eigenvalues --    3.95588   3.96273   3.96352   3.96677   3.96914
 Alpha virt. eigenvalues --    3.97703   3.98554   3.99031   3.99643   4.00182
 Alpha virt. eigenvalues --    4.00509   4.01772   4.01948   4.02032   4.02806
 Alpha virt. eigenvalues --    4.02915   4.03335   4.04214   4.04388   4.04734
 Alpha virt. eigenvalues --    4.05093   4.06255   4.06684   4.07195   4.08102
 Alpha virt. eigenvalues --    4.08729   4.09119   4.09642   4.10919   4.11142
 Alpha virt. eigenvalues --    4.11799   4.12025   4.12400   4.12783   4.12932
 Alpha virt. eigenvalues --    4.13807   4.14067   4.14342   4.14523   4.14893
 Alpha virt. eigenvalues --    4.15783   4.16514   4.16902   4.17471   4.18055
 Alpha virt. eigenvalues --    4.18147   4.18517   4.19251   4.19847   4.20042
 Alpha virt. eigenvalues --    4.20140   4.20657   4.21104   4.21452   4.21711
 Alpha virt. eigenvalues --    4.22637   4.22891   4.23254   4.23627   4.23880
 Alpha virt. eigenvalues --    4.24357   4.24913   4.25298   4.25820   4.26007
 Alpha virt. eigenvalues --    4.26517   4.26862   4.27419   4.27705   4.28171
 Alpha virt. eigenvalues --    4.28823   4.29191   4.29704   4.30287   4.30583
 Alpha virt. eigenvalues --    4.31161   4.31810   4.32354   4.32782   4.33617
 Alpha virt. eigenvalues --    4.34739   4.35150   4.35393   4.36192   4.36403
 Alpha virt. eigenvalues --    4.36596   4.37229   4.38252   4.38450   4.39231
 Alpha virt. eigenvalues --    4.39518   4.40346   4.40519   4.41176   4.41844
 Alpha virt. eigenvalues --    4.41897   4.42779   4.43419   4.43935   4.44014
 Alpha virt. eigenvalues --    4.44878   4.46257   4.46919   4.47114   4.47744
 Alpha virt. eigenvalues --    4.48441   4.48678   4.49146   4.49947   4.50328
 Alpha virt. eigenvalues --    4.51071   4.51538   4.52390   4.52853   4.54094
 Alpha virt. eigenvalues --    4.54303   4.55067   4.55596   4.56060   4.56803
 Alpha virt. eigenvalues --    4.57558   4.57841   4.58369   4.59602   4.59942
 Alpha virt. eigenvalues --    4.60244   4.60498   4.61061   4.61509   4.61911
 Alpha virt. eigenvalues --    4.63093   4.63618   4.64058   4.65002   4.65393
 Alpha virt. eigenvalues --    4.66320   4.66401   4.67877   4.68493   4.68842
 Alpha virt. eigenvalues --    4.69227   4.70225   4.70875   4.71591   4.72057
 Alpha virt. eigenvalues --    4.72435   4.73258   4.73509   4.73911   4.74695
 Alpha virt. eigenvalues --    4.74890   4.75417   4.75666   4.75994   4.76542
 Alpha virt. eigenvalues --    4.77070   4.77133   4.77698   4.78618   4.79538
 Alpha virt. eigenvalues --    4.79919   4.80313   4.80944   4.81303   4.81626
 Alpha virt. eigenvalues --    4.82171   4.82998   4.83159   4.84058   4.84630
 Alpha virt. eigenvalues --    4.84831   4.85799   4.86896   4.87218   4.87956
 Alpha virt. eigenvalues --    4.88257   4.89354   4.89993   4.90645   4.90916
 Alpha virt. eigenvalues --    4.91148   4.91606   4.92087   4.92430   4.93516
 Alpha virt. eigenvalues --    4.94766   4.94918   4.95266   4.95443   4.96804
 Alpha virt. eigenvalues --    4.96989   4.97243   4.97822   4.99275   4.99615
 Alpha virt. eigenvalues --    5.00400   5.00906   5.01535   5.02641   5.03155
 Alpha virt. eigenvalues --    5.03948   5.04101   5.05279   5.06554   5.07254
 Alpha virt. eigenvalues --    5.08164   5.09501   5.10341   5.10917   5.11790
 Alpha virt. eigenvalues --    5.12169   5.12994   5.14770   5.15661   5.16102
 Alpha virt. eigenvalues --    5.16712   5.17459   5.18159   5.18908   5.18927
 Alpha virt. eigenvalues --    5.19512   5.20044   5.20955   5.21356   5.21653
 Alpha virt. eigenvalues --    5.22070   5.22446   5.22774   5.23309   5.23412
 Alpha virt. eigenvalues --    5.24836   5.25692   5.26722   5.26989   5.28355
 Alpha virt. eigenvalues --    5.29645   5.30286   5.31241   5.31740   5.32728
 Alpha virt. eigenvalues --    5.32865   5.33843   5.34561   5.35549   5.35839
 Alpha virt. eigenvalues --    5.36245   5.38234   5.39209   5.40912   5.41523
 Alpha virt. eigenvalues --    5.41650   5.41791   5.42618   5.43130   5.44546
 Alpha virt. eigenvalues --    5.45102   5.45382   5.46469   5.47409   5.47882
 Alpha virt. eigenvalues --    5.48276   5.48638   5.50365   5.51365   5.53200
 Alpha virt. eigenvalues --    5.53916   5.54478   5.55885   5.57006   5.57310
 Alpha virt. eigenvalues --    5.58600   5.59192   5.60054   5.61078   5.61345
 Alpha virt. eigenvalues --    5.63275   5.63727   5.64278   5.65182   5.65566
 Alpha virt. eigenvalues --    5.66793   5.67158   5.68047   5.69810   5.71247
 Alpha virt. eigenvalues --    5.73538   5.75618   5.77592   5.79450   5.80223
 Alpha virt. eigenvalues --    5.81600   5.83119   5.88153   5.91333   5.91427
 Alpha virt. eigenvalues --    5.92219   5.93849   5.95313   5.97253   5.97841
 Alpha virt. eigenvalues --    5.98986   6.00711   6.02358   6.03297   6.04195
 Alpha virt. eigenvalues --    6.05231   6.07357   6.08276   6.09195   6.09631
 Alpha virt. eigenvalues --    6.12991   6.13623   6.16115   6.16307   6.16663
 Alpha virt. eigenvalues --    6.17721   6.23152   6.23844   6.26773   6.27466
 Alpha virt. eigenvalues --    6.27860   6.28778   6.31430   6.34805   6.37487
 Alpha virt. eigenvalues --    6.40245   6.46381   6.47001   6.48407   6.49363
 Alpha virt. eigenvalues --    6.52942   6.66441   6.66979   6.76047   6.76407
 Alpha virt. eigenvalues --    6.83810   6.87082   6.89528   6.93728   6.98596
 Alpha virt. eigenvalues --    7.01178   7.11489   7.13306   7.18056   7.18389
 Alpha virt. eigenvalues --    7.25105   7.35713  22.38825  22.39481  22.41198
 Alpha virt. eigenvalues --   22.52563  22.53540  22.54788  22.55139  22.59322
 Alpha virt. eigenvalues --   22.63119  22.64424  22.70997  22.72530  22.75721
 Alpha virt. eigenvalues --   22.80750  22.81866  22.82799  22.85669  22.88892
 Alpha virt. eigenvalues --   22.93593  22.95867  22.97923  23.01746  23.05548
 Alpha virt. eigenvalues --   23.08774  23.12325  23.14085  23.19080  23.21651
 Alpha virt. eigenvalues --   23.23440  23.29315  23.32153  23.36270  23.39854
 Alpha virt. eigenvalues --   23.50605  23.51920  23.57565  23.58452  23.59373
 Alpha virt. eigenvalues --   23.71546  23.75526  23.75622  23.83559  32.43547
 Alpha virt. eigenvalues --   32.46475  32.77768  32.86254  32.90343  33.01601
 Alpha virt. eigenvalues --   33.12017  33.41063  43.94584  43.95329  43.95958
 Alpha virt. eigenvalues --   44.07419
  Beta  occ. eigenvalues -- -256.46316 -30.19522 -26.02739 -26.02704 -26.02673
  Beta  occ. eigenvalues --  -19.28025 -19.27032 -19.19533 -19.19012 -14.46144
  Beta  occ. eigenvalues --  -14.45896 -14.41048 -14.40839 -14.40497 -14.40073
  Beta  occ. eigenvalues --  -14.40048 -14.39718 -10.36573 -10.36436 -10.30277
  Beta  occ. eigenvalues --  -10.29935 -10.29594 -10.29025 -10.28378 -10.28357
  Beta  occ. eigenvalues --  -10.28037 -10.27975 -10.27946 -10.27715 -10.27698
  Beta  occ. eigenvalues --  -10.27663 -10.27326 -10.25436 -10.25414 -10.25174
  Beta  occ. eigenvalues --  -10.25152 -10.25068 -10.24908 -10.24890 -10.24849
  Beta  occ. eigenvalues --  -10.24595 -10.24400 -10.24342 -10.24214 -10.24207
  Beta  occ. eigenvalues --  -10.24200 -10.24179 -10.24147 -10.24144 -10.24082
  Beta  occ. eigenvalues --  -10.23870 -10.23607 -10.23274 -10.23039 -10.22722
  Beta  occ. eigenvalues --  -10.22636 -10.22551 -10.22501 -10.20536  -3.48643
  Beta  occ. eigenvalues --   -2.22998  -2.22989  -2.22941  -1.18567  -1.17826
  Beta  occ. eigenvalues --   -1.07906  -1.07757  -1.04385  -1.03985  -1.00923
  Beta  occ. eigenvalues --   -1.00029  -0.99621  -0.98756  -0.93049  -0.92903
  Beta  occ. eigenvalues --   -0.88080  -0.86807  -0.86126  -0.85886  -0.85593
  Beta  occ. eigenvalues --   -0.84091  -0.83380  -0.82377  -0.82133  -0.81747
  Beta  occ. eigenvalues --   -0.80890  -0.80599  -0.78849  -0.78177  -0.76379
  Beta  occ. eigenvalues --   -0.75779  -0.74450  -0.73656  -0.73553  -0.73408
  Beta  occ. eigenvalues --   -0.71971  -0.71842  -0.70929  -0.68748  -0.68302
  Beta  occ. eigenvalues --   -0.66949  -0.66803  -0.66339  -0.66117  -0.64885
  Beta  occ. eigenvalues --   -0.64313  -0.63618  -0.63391  -0.61878  -0.60376
  Beta  occ. eigenvalues --   -0.58356  -0.58134  -0.58031  -0.57721  -0.57184
  Beta  occ. eigenvalues --   -0.56560  -0.55425  -0.54721  -0.54513  -0.53859
  Beta  occ. eigenvalues --   -0.53099  -0.53018  -0.52632  -0.52185  -0.51580
  Beta  occ. eigenvalues --   -0.51375  -0.51147  -0.50169  -0.49876  -0.49549
  Beta  occ. eigenvalues --   -0.49439  -0.49222  -0.49138  -0.49045  -0.48570
  Beta  occ. eigenvalues --   -0.48064  -0.47850  -0.47484  -0.47041  -0.46460
  Beta  occ. eigenvalues --   -0.46346  -0.46100  -0.45385  -0.45377  -0.44964
  Beta  occ. eigenvalues --   -0.44940  -0.44869  -0.44632  -0.44375  -0.44190
  Beta  occ. eigenvalues --   -0.44046  -0.43987  -0.43800  -0.43691  -0.43250
  Beta  occ. eigenvalues --   -0.43017  -0.42820  -0.42774  -0.42546  -0.42344
  Beta  occ. eigenvalues --   -0.42184  -0.41892  -0.41603  -0.41179  -0.41021
  Beta  occ. eigenvalues --   -0.40858  -0.40492  -0.39937  -0.39765  -0.39532
  Beta  occ. eigenvalues --   -0.39095  -0.38828  -0.38459  -0.38394  -0.38274
  Beta  occ. eigenvalues --   -0.37883  -0.36891  -0.36770  -0.36643  -0.36477
  Beta  occ. eigenvalues --   -0.35681  -0.35460  -0.35067  -0.34375  -0.34237
  Beta  occ. eigenvalues --   -0.34093  -0.33525  -0.32354  -0.30914  -0.30327
  Beta  occ. eigenvalues --   -0.29439  -0.29264  -0.28703  -0.27286  -0.26877
  Beta  occ. eigenvalues --   -0.26455  -0.26114  -0.25986  -0.25307  -0.22752
  Beta  occ. eigenvalues --   -0.22127  -0.21577
  Beta virt. eigenvalues --   -0.12433  -0.12225  -0.10239  -0.08444  -0.08050
  Beta virt. eigenvalues --   -0.04998  -0.03583  -0.02541  -0.02135  -0.01483
  Beta virt. eigenvalues --   -0.01139  -0.01060   0.00086   0.00182   0.00917
  Beta virt. eigenvalues --    0.01341   0.01723   0.02499   0.02612   0.03266
  Beta virt. eigenvalues --    0.03868   0.03958   0.04045   0.04255   0.04587
  Beta virt. eigenvalues --    0.04736   0.04932   0.05578   0.06054   0.06488
  Beta virt. eigenvalues --    0.06596   0.06728   0.06974   0.07156   0.07555
  Beta virt. eigenvalues --    0.07842   0.08308   0.08463   0.08742   0.08986
  Beta virt. eigenvalues --    0.09161   0.09201   0.09527   0.09952   0.10163
  Beta virt. eigenvalues --    0.10380   0.10836   0.10891   0.11112   0.11349
  Beta virt. eigenvalues --    0.11663   0.11787   0.12119   0.12248   0.12419
  Beta virt. eigenvalues --    0.12638   0.12674   0.12760   0.13139   0.13391
  Beta virt. eigenvalues --    0.13592   0.13803   0.13905   0.13970   0.14159
  Beta virt. eigenvalues --    0.14381   0.14575   0.14759   0.15014   0.15181
  Beta virt. eigenvalues --    0.15271   0.15564   0.15772   0.15861   0.16080
  Beta virt. eigenvalues --    0.16257   0.16554   0.16603   0.16775   0.16948
  Beta virt. eigenvalues --    0.17107   0.17491   0.17769   0.18143   0.18258
  Beta virt. eigenvalues --    0.18366   0.18666   0.18861   0.19032   0.19204
  Beta virt. eigenvalues --    0.19444   0.19586   0.19866   0.20015   0.20143
  Beta virt. eigenvalues --    0.20303   0.20414   0.20585   0.20795   0.21099
  Beta virt. eigenvalues --    0.21198   0.21602   0.21710   0.21901   0.22177
  Beta virt. eigenvalues --    0.22392   0.22505   0.22880   0.23184   0.23347
  Beta virt. eigenvalues --    0.23437   0.23572   0.23830   0.24081   0.24244
  Beta virt. eigenvalues --    0.24483   0.24813   0.24993   0.25108   0.25532
  Beta virt. eigenvalues --    0.25663   0.25883   0.25912   0.26200   0.26355
  Beta virt. eigenvalues --    0.26756   0.26942   0.27117   0.27461   0.27679
  Beta virt. eigenvalues --    0.27760   0.27810   0.28025   0.28232   0.28395
  Beta virt. eigenvalues --    0.28486   0.28839   0.29086   0.29195   0.29661
  Beta virt. eigenvalues --    0.29721   0.29898   0.30371   0.30684   0.30902
  Beta virt. eigenvalues --    0.31052   0.31097   0.31193   0.31562   0.32031
  Beta virt. eigenvalues --    0.32154   0.32588   0.32655   0.32865   0.33089
  Beta virt. eigenvalues --    0.33173   0.33544   0.33706   0.33878   0.34097
  Beta virt. eigenvalues --    0.34414   0.34689   0.34937   0.34997   0.35293
  Beta virt. eigenvalues --    0.35334   0.35653   0.35862   0.35995   0.36371
  Beta virt. eigenvalues --    0.36469   0.36798   0.36957   0.37044   0.37114
  Beta virt. eigenvalues --    0.37585   0.37766   0.38009   0.38213   0.38251
  Beta virt. eigenvalues --    0.38470   0.38565   0.38934   0.39008   0.39169
  Beta virt. eigenvalues --    0.39298   0.39443   0.39603   0.39763   0.40080
  Beta virt. eigenvalues --    0.40389   0.40404   0.40561   0.40682   0.41033
  Beta virt. eigenvalues --    0.41228   0.41375   0.41506   0.41736   0.41792
  Beta virt. eigenvalues --    0.42027   0.42209   0.42503   0.42538   0.42721
  Beta virt. eigenvalues --    0.42904   0.42993   0.43101   0.43240   0.43323
  Beta virt. eigenvalues --    0.43827   0.43903   0.44098   0.44271   0.44476
  Beta virt. eigenvalues --    0.44584   0.44919   0.44954   0.45092   0.45466
[...]
    36 C(13)  Bbb     0.0020     0.269     0.096     0.090 -0.3638  0.2095  0.9076
              Bcc     0.0147     1.974     0.704     0.658 -0.5028  0.7760 -0.3807
 
              Baa    -0.0282    -3.782    -1.349    -1.262  0.1988  0.2495  0.9478
    37 C(13)  Bbb    -0.0268    -3.590    -1.281    -1.197  0.9686  0.0975 -0.2288
              Bcc     0.0549     7.372     2.630     2.459 -0.1495  0.9635 -0.2223
 
              Baa    -0.0052    -0.701    -0.250    -0.234  0.6298  0.5040 -0.5910
    38 C(13)  Bbb    -0.0026    -0.346    -0.124    -0.116  0.1598  0.6605  0.7336
              Bcc     0.0078     1.047     0.374     0.349  0.7601 -0.5565  0.3355
 
              Baa    -0.0122    -1.631    -0.582    -0.544 -0.2401  0.2038  0.9491
    39 C(13)  Bbb    -0.0013    -0.173    -0.062    -0.058  0.9228  0.3515  0.1580
              Bcc     0.0134     1.804     0.644     0.602 -0.3014  0.9137 -0.2724
 
              Baa    -0.0095    -1.276    -0.455    -0.426  0.8597  0.5003  0.1024
    40 C(13)  Bbb    -0.0022    -0.296    -0.106    -0.099 -0.4552  0.8416 -0.2906
              Bcc     0.0117     1.572     0.561     0.524 -0.2316  0.2032  0.9513
 
              Baa    -0.0312    -4.187    -1.494    -1.397  0.0689  0.0369  0.9969
    41 C(13)  Bbb    -0.0282    -3.786    -1.351    -1.263  0.9046 -0.4237 -0.0468
              Bcc     0.0594     7.973     2.845     2.659  0.4206  0.9051 -0.0626
 
              Baa    -0.0222    -2.984    -1.065    -0.995 -0.6385  0.7445 -0.1950
    42 C(13)  Bbb     0.0078     1.047     0.374     0.349  0.4014  0.5384  0.7410
              Bcc     0.0144     1.937     0.691     0.646  0.6566  0.3948 -0.6426
 
              Baa    -0.0148    -1.983    -0.708    -0.662 -0.4941  0.8356 -0.2401
    43 C(13)  Bbb    -0.0034    -0.453    -0.162    -0.151 -0.2299  0.1408  0.9630
              Bcc     0.0182     2.436     0.869     0.813  0.8385  0.5310  0.1225
 
              Baa    -0.0349    -4.682    -1.671    -1.562 -0.1461  0.9808 -0.1289
    44 C(13)  Bbb    -0.0175    -2.343    -0.836    -0.782 -0.1952  0.0992  0.9757
              Bcc     0.0524     7.025     2.507     2.343  0.9698  0.1677  0.1770
 
              Baa    -0.0052    -0.703    -0.251    -0.234  0.7702 -0.5382  0.3422
    45 C(13)  Bbb    -0.0044    -0.595    -0.212    -0.199 -0.3173  0.1421  0.9376
              Bcc     0.0097     1.298     0.463     0.433  0.5533  0.8307  0.0614
 
              Baa    -0.0049    -0.657    -0.235    -0.219 -0.2991  0.9536 -0.0342
    46 C(13)  Bbb    -0.0049    -0.652    -0.233    -0.217 -0.1830 -0.0221  0.9829
              Bcc     0.0098     1.309     0.467     0.437  0.9365  0.3002  0.1811
 
              Baa    -0.0032    -0.433    -0.155    -0.145 -0.3046  0.7360 -0.6046
    47 C(13)  Bbb    -0.0028    -0.371    -0.132    -0.124 -0.0690  0.6160  0.7847
              Bcc     0.0060     0.804     0.287     0.268  0.9500  0.2807 -0.1368
 
              Baa    -0.0016    -0.220    -0.078    -0.073 -0.2436  0.7313 -0.6371
    48 C(13)  Bbb    -0.0016    -0.215    -0.077    -0.072 -0.1823  0.6107  0.7706
              Bcc     0.0032     0.435     0.155     0.145  0.9526  0.3038 -0.0155
 
              Baa    -0.0013     0.092     0.033     0.031 -0.3339  0.7100 -0.6201
    49 O(17)  Bbb    -0.0013     0.091     0.032     0.030 -0.0944  0.6293  0.7714
              Bcc     0.0025    -0.182    -0.065    -0.061  0.9379  0.3161 -0.1431
 
              Baa    -0.0014     0.103     0.037     0.034  0.0028 -0.2891  0.9573
    50 O(17)  Bbb    -0.0014     0.098     0.035     0.033 -0.3176  0.9075  0.2750
              Bcc     0.0028    -0.201    -0.072    -0.067  0.9482  0.3048  0.0893
 
              Baa    -0.1749    -6.745    -2.407    -2.250  0.8145  0.5762 -0.0683
    51 N(14)  Bbb    -0.1143    -4.409    -1.573    -1.471 -0.0697  0.2140  0.9743
              Bcc     0.2892    11.154     3.980     3.720 -0.5760  0.7888 -0.2144
 
              Baa    -0.1654    -6.380    -2.277    -2.128 -0.5672  0.7535 -0.3324
    52 N(14)  Bbb    -0.1113    -4.292    -1.532    -1.432 -0.2670  0.2136  0.9397
              Bcc     0.2767    10.673     3.808     3.560  0.7791  0.6218  0.0800
 
              Baa    -0.1621    -6.254    -2.231    -2.086  0.7417  0.6423  0.1932
    53 N(14)  Bbb    -0.1298    -5.005    -1.786    -1.670 -0.3376  0.1086  0.9350
              Bcc     0.2919    11.259     4.017     3.756 -0.5795  0.7588 -0.2974
 
              Baa    -0.1772    -6.835    -2.439    -2.280 -0.5874  0.7805 -0.2139
    54 N(14)  Bbb    -0.1352    -5.214    -1.860    -1.739 -0.2019  0.1146  0.9727
              Bcc     0.3124    12.049     4.299     4.019  0.7837  0.6145  0.0903
 
              Baa    -0.0851    -1.474    -0.526    -0.492 -0.1917  0.2361  0.9526
    55 Fe(57) Bbb     0.0255     0.441     0.157     0.147  0.3549  0.9216 -0.1570
              Bcc     0.0596     1.033     0.368     0.344  0.9151 -0.3080  0.2605
 
              Baa    -0.0040    -2.110    -0.753    -0.704  0.9250 -0.2736  0.2637
    56 H(1)   Bbb    -0.0037    -1.984    -0.708    -0.662  0.1849  0.9304  0.3165
              Bcc     0.0077     4.094     1.461     1.366 -0.3319 -0.2440  0.9112
 
              Baa    -0.0031    -1.671    -0.596    -0.558 -0.1104  0.9936  0.0220
    57 H(1)   Bbb    -0.0030    -1.622    -0.579    -0.541  0.9842  0.1063  0.1417
              Bcc     0.0062     3.293     1.175     1.099 -0.1385 -0.0373  0.9897
 
              Baa    -0.0031    -1.672    -0.597    -0.558  0.6402  0.7205  0.2665
    58 H(1)   Bbb    -0.0030    -1.614    -0.576    -0.538 -0.6445  0.6925 -0.3241
              Bcc     0.0062     3.286     1.172     1.096 -0.4181  0.0357  0.9077
 
              Baa    -0.0206   -10.970    -3.914    -3.659  0.9334 -0.3321  0.1360
    59 H(1)   Bbb    -0.0196   -10.473    -3.737    -3.493  0.2208  0.8303  0.5117
              Bcc     0.0402    21.442     7.651     7.152 -0.2829 -0.4476  0.8483
 
              Baa    -0.0178    -9.511    -3.394    -3.173  0.9707 -0.1229  0.2066
    60 H(1)   Bbb    -0.0167    -8.928    -3.186    -2.978 -0.2384 -0.6029  0.7614
              Bcc     0.0346    18.439     6.579     6.151 -0.0310  0.7883  0.6145
 
              Baa    -0.0038    -2.045    -0.730    -0.682  0.9585 -0.1261  0.2557
    61 H(1)   Bbb    -0.0036    -1.921    -0.686    -0.641  0.2522  0.7934 -0.5541
              Bcc     0.0074     3.966     1.415     1.323 -0.1330  0.5956  0.7922
 
              Baa    -0.0030    -1.626    -0.580    -0.543  0.8539  0.5148 -0.0767
    62 H(1)   Bbb    -0.0029    -1.521    -0.543    -0.507 -0.5058  0.7859 -0.3556
              Bcc     0.0059     3.147     1.123     1.050 -0.1228  0.3425  0.9315
 
              Baa    -0.0034    -1.817    -0.648    -0.606  0.3052  0.8978 -0.3175
    63 H(1)   Bbb    -0.0032    -1.729    -0.617    -0.577  0.8699 -0.1271  0.4766
              Bcc     0.0066     3.546     1.265     1.183 -0.3875  0.4216  0.8198
 
              Baa    -0.0200   -10.683    -3.812    -3.563  0.9603  0.2736 -0.0544
    64 H(1)   Bbb    -0.0186    -9.920    -3.540    -3.309  0.2110 -0.5846  0.7834
              Bcc     0.0386    20.603     7.351     6.872 -0.1825  0.7638  0.6191
 
              Baa    -0.0192   -10.227    -3.649    -3.411  0.9205  0.2663  0.2860
    65 H(1)   Bbb    -0.0178    -9.507    -3.392    -3.171 -0.3712  0.8244  0.4272
              Bcc     0.0370    19.734     7.042     6.583 -0.1220 -0.4994  0.8578
 
              Baa    -0.0086    -4.589    -1.638    -1.531 -0.1757  0.1274  0.9762
    66 H(1)   Bbb    -0.0068    -3.605    -1.286    -1.203  0.1535  0.9830 -0.1006
              Bcc     0.0154     8.195     2.924     2.734  0.9724 -0.1321  0.1923
 
              Baa    -0.0085    -4.516    -1.611    -1.506 -0.1542  0.2059  0.9663
    67 H(1)   Bbb    -0.0065    -3.452    -1.232    -1.151  0.9755 -0.1235  0.1820
              Bcc     0.0149     7.967     2.843     2.658  0.1568  0.9707 -0.1818
 
              Baa    -0.0083    -4.425    -1.579    -1.476 -0.2340  0.2534  0.9386
    68 H(1)   Bbb    -0.0071    -3.790    -1.352    -1.264  0.1564  0.9627 -0.2209
              Bcc     0.0154     8.215     2.931     2.740  0.9596 -0.0951  0.2649
 
              Baa    -0.0082    -4.389    -1.566    -1.464 -0.2334  0.1954  0.9525
    69 H(1)   Bbb    -0.0073    -3.869    -1.381    -1.291  0.9603 -0.1078  0.2574
              Bcc     0.0155     8.258     2.947     2.755  0.1530  0.9748 -0.1625
 
              Baa    -0.0041    -2.191    -0.782    -0.731 -0.4267 -0.0390  0.9036
    70 H(1)   Bbb    -0.0035    -1.890    -0.675    -0.631  0.8865  0.1800  0.4264
              Bcc     0.0076     4.081     1.456     1.361 -0.1793  0.9829 -0.0422
 
              Baa    -0.0032    -1.713    -0.611    -0.572 -0.0842  0.1185  0.9894
    71 H(1)   Bbb    -0.0030    -1.587    -0.566    -0.529  0.8928  0.4500  0.0220
              Bcc     0.0062     3.301     1.178     1.101 -0.4426  0.8851 -0.1437
 
              Baa    -0.0037    -1.961    -0.700    -0.654  0.5237  0.4210  0.7406
    72 H(1)   Bbb    -0.0033    -1.780    -0.635    -0.594  0.8248 -0.0330 -0.5645
              Bcc     0.0070     3.740     1.335     1.248 -0.2132  0.9064 -0.3646
 
              Baa    -0.0033    -1.736    -0.619    -0.579 -0.0639  0.2043  0.9768
    73 H(1)   Bbb    -0.0030    -1.594    -0.569    -0.532  0.7071  0.7000 -0.1002
              Bcc     0.0062     3.329     1.188     1.111  0.7042 -0.6843  0.1892
 
              Baa    -0.0040    -2.124    -0.758    -0.709 -0.3309 -0.0338  0.9431
    74 H(1)   Bbb    -0.0035    -1.874    -0.669    -0.625  0.3929  0.9037  0.1702
              Bcc     0.0075     3.999     1.427     1.334  0.8580 -0.4268  0.2857
 
              Baa    -0.0021    -1.096    -0.391    -0.365  0.3883  0.5971  0.7019
    75 H(1)   Bbb    -0.0020    -1.045    -0.373    -0.349 -0.3440 -0.6127  0.7116
              Bcc     0.0040     2.140     0.764     0.714  0.8549 -0.5177 -0.0325
 
              Baa    -0.0040    -2.129    -0.760    -0.710  0.2812  0.3951  0.8745
    76 H(1)   Bbb    -0.0036    -1.931    -0.689    -0.644  0.2870  0.8349 -0.4696
              Bcc     0.0076     4.060     1.449     1.354  0.9157 -0.3831 -0.1214
 
              Baa    -0.0031    -1.660    -0.592    -0.554 -0.5143  0.2638  0.8160
    77 H(1)   Bbb    -0.0029    -1.569    -0.560    -0.523  0.6110 -0.5550  0.5645
              Bcc     0.0061     3.229     1.152     1.077  0.6018  0.7889  0.1243
 
              Baa    -0.0041    -2.185    -0.780    -0.729 -0.1681  0.0917  0.9815
    78 H(1)   Bbb    -0.0036    -1.929    -0.688    -0.643  0.9047 -0.3811  0.1906
              Bcc     0.0077     4.114     1.468     1.372  0.3916  0.9200 -0.0189
 
              Baa    -0.0032    -1.728    -0.616    -0.576  0.7386 -0.6320 -0.2349
    79 H(1)   Bbb    -0.0032    -1.697    -0.606    -0.566  0.3035  0.0005  0.9528
              Bcc     0.0064     3.425     1.222     1.142  0.6020  0.7750 -0.1922
 
              Baa    -0.0035    -1.883    -0.672    -0.628 -0.1488  0.8134 -0.5623
    80 H(1)   Bbb    -0.0035    -1.852    -0.661    -0.618 -0.5447  0.4072  0.7331
              Bcc     0.0070     3.736     1.333     1.246  0.8253  0.4154  0.3825
 
              Baa    -0.0030    -1.595    -0.569    -0.532 -0.2246  0.7580 -0.6123
    81 H(1)   Bbb    -0.0026    -1.396    -0.498    -0.466 -0.0730  0.6135  0.7863
              Bcc     0.0056     2.991     1.067     0.998  0.9717  0.2213 -0.0825
 
              Baa    -0.0021    -1.126    -0.402    -0.376 -0.2638  0.3260  0.9078
    82 H(1)   Bbb    -0.0018    -0.973    -0.347    -0.325 -0.1832  0.9071 -0.3790
              Bcc     0.0039     2.099     0.749     0.700  0.9470  0.2663  0.1796
 
              Baa    -0.0027    -1.452    -0.518    -0.484 -0.4938 -0.2601  0.8298
    83 H(1)   Bbb    -0.0026    -1.367    -0.488    -0.456  0.4332  0.7538  0.4941
              Bcc     0.0053     2.819     1.006     0.940  0.7540 -0.6034  0.2595
 
              Baa    -0.0043    -2.303    -0.822    -0.768  0.5831  0.7745 -0.2453
    84 H(1)   Bbb    -0.0042    -2.223    -0.793    -0.741  0.0572  0.2621  0.9634
              Bcc     0.0085     4.525     1.615     1.509  0.8104 -0.5758  0.1085
 
              Baa    -0.0041    -2.200    -0.785    -0.734 -0.2986  0.3333  0.8943
    85 H(1)   Bbb    -0.0033    -1.767    -0.631    -0.589  0.6778  0.7337 -0.0472
              Bcc     0.0074     3.967     1.416     1.323  0.6719 -0.5921  0.4449
 
              Baa    -0.0042    -2.229    -0.795    -0.743 -0.2052  0.2112  0.9556
    86 H(1)   Bbb    -0.0039    -2.067    -0.738    -0.689  0.9642  0.2114  0.1603
              Bcc     0.0081     4.296     1.533     1.433 -0.1681  0.9543 -0.2470
 
              Baa    -0.0022    -1.182    -0.422    -0.394 -0.1770  0.2559  0.9504
    87 H(1)   Bbb    -0.0013    -0.711    -0.254    -0.237  0.7730  0.6338 -0.0267
              Bcc     0.0035     1.893     0.676     0.631 -0.6092  0.7299 -0.3100
 
              Baa    -0.0021    -1.143    -0.408    -0.381  0.9481  0.2652  0.1753
    88 H(1)   Bbb    -0.0016    -0.848    -0.302    -0.283 -0.2328  0.2038  0.9509
              Bcc     0.0037     1.991     0.710     0.664 -0.2165  0.9424 -0.2550
 
              Baa    -0.0032    -1.726    -0.616    -0.576 -0.0059 -0.0179  0.9998
    89 H(1)   Bbb    -0.0030    -1.594    -0.569    -0.532  0.7222 -0.6917 -0.0081
              Bcc     0.0062     3.320     1.185     1.107  0.6917  0.7220  0.0170
 
              Baa    -0.0040    -2.137    -0.763    -0.713 -0.2739  0.2294  0.9340
    90 H(1)   Bbb    -0.0035    -1.846    -0.659    -0.616  0.8491 -0.3985  0.3468
              Bcc     0.0075     3.983     1.421     1.329  0.4518  0.8880 -0.0856
 
              Baa    -0.0038    -2.031    -0.725    -0.677  0.5734 -0.5287  0.6259
    91 H(1)   Bbb    -0.0034    -1.839    -0.656    -0.613 -0.6491  0.1730  0.7408
              Bcc     0.0073     3.869     1.381     1.291  0.4999  0.8310  0.2439
 
              Baa    -0.0043    -2.293    -0.818    -0.765 -0.2548  0.1939  0.9474
    92 H(1)   Bbb    -0.0038    -2.009    -0.717    -0.670 -0.1005  0.9691 -0.2254
              Bcc     0.0081     4.302     1.535     1.435  0.9618  0.1526  0.2274
 
              Baa    -0.0033    -1.758    -0.627    -0.586 -0.1778 -0.1877  0.9660
    93 H(1)   Bbb    -0.0030    -1.615    -0.576    -0.539 -0.4749  0.8761  0.0828
              Bcc     0.0063     3.373     1.204     1.125  0.8619  0.4440  0.2449
 
              Baa    -0.0029    -1.544    -0.551    -0.515 -0.1419  0.5906  0.7944
    94 H(1)   Bbb    -0.0028    -1.516    -0.541    -0.506 -0.4582  0.6721 -0.5816
              Bcc     0.0057     3.060     1.092     1.021  0.8774  0.4466 -0.1753
 
              Baa    -0.0032    -1.728    -0.617    -0.576  0.2201 -0.4123  0.8840
    95 H(1)   Bbb    -0.0030    -1.598    -0.570    -0.533 -0.0837  0.8949  0.4382
              Bcc     0.0062     3.326     1.187     1.109  0.9719  0.1705 -0.1625
 
              Baa    -0.0011    -0.609    -0.217    -0.203  0.3262 -0.6224  0.7115
    96 H(1)   Bbb    -0.0011    -0.592    -0.211    -0.197 -0.0230  0.7472  0.6642
              Bcc     0.0023     1.201     0.428     0.400  0.9450  0.2331 -0.2294
 
              Baa    -0.0020    -1.062    -0.379    -0.354  0.8217  0.5677 -0.0504
    97 H(1)   Bbb    -0.0019    -1.034    -0.369    -0.345  0.2096 -0.2187  0.9530
              Bcc     0.0039     2.096     0.748     0.699 -0.5300  0.7936  0.2987
 
              Baa    -0.0056    -2.976    -1.062    -0.993  0.8904 -0.2904  0.3504
    98 H(1)   Bbb    -0.0053    -2.826    -1.008    -0.943  0.4167  0.8299 -0.3710
              Bcc     0.0109     5.802     2.070     1.935 -0.1831  0.4764  0.8600
 
              Baa    -0.0057    -3.052    -1.089    -1.018  0.9773  0.1021  0.1855
    99 H(1)   Bbb    -0.0054    -2.876    -1.026    -0.959 -0.1189  0.9895  0.0821
              Bcc     0.0111     5.928     2.115     1.977 -0.1752 -0.1023  0.9792
 

 ---------------------------------------------------------------------------------

 1\1\GINC-NODE375\SP\UPBE1PBE\def2TZVP\C42H44Fe1N8O4(1+,6)\KLEICH\20-Oc
 t-2022\0\\# PBE1PBE/def2TZVP empiricaldispersion=GD3BJ int=(grid=ultra
 fine) geom=check guess=read scrf=(smd,solvent=Chloroform)\\1es1_III_H_
 solv\\1,6\C,0,10.389,7.264,-0.33\C,0,10.259,5.837,-0.756\N,0,9.134,5.0
 66,-0.552\C,0,11.151,5.032,-1.386\C,0,9.377,3.851,-1.051\N,0,10.59,3.7
 86,-1.567\C,0,15.294,-1.376,-4.837\C,0,14.155,-0.842,-4.034\N,0,13.153
 ,-1.622,-3.506\C,0,13.828,0.437,-3.727\C,0,12.272,-0.809,-2.914\N,0,12
 .643,0.45,-3.024\C,0,10.604,2.74,-5.477\C,0,14.465,4.118,-2.957\C,0,13
 .023,1.409,0.762\C,0,8.949,0.248,-1.643\C,0,11.847,3.243,-5.138\C,0,12
 .689,3.98,-6.045\C,0,13.741,4.42,-5.313\C,0,13.553,3.927,-3.964\C,0,14
 .926,5.206,-5.829\C,0,12.516,4.197,-7.544\C,0,12.704,2.938,-8.38\C,0,1
 4.03,2.26,-8.115\O,0,15.081,2.905,-8.307\O,0,14.021,1.08,-7.709\C,0,14
 .378,3.519,-1.705\C,0,15.454,3.576,-0.732\C,0,15.067,2.779,0.297\C,0,1
 3.74,2.28,-0.026\C,0,16.767,4.356,-0.901\C,0,15.891,2.344,1.32\C,0,15.
 811,2.826,2.613\C,0,11.803,0.824,0.411\C,0,11.068,-0.079,1.279\C,0,9.8
 94,-0.389,0.647\C,0,9.929,0.33,-0.627\C,0,11.49,-0.455,2.707\C,0,8.843
 ,-1.203,1.073\C,0,8.724,-1.87,2.298\C,0,9.038,0.896,-2.887\C,0,8.005,0
 .907,-3.919\C,0,8.492,1.577,-4.993\C,0,9.801,2.015,-4.623\C,0,6.58,0.3
 99,-3.808\C,0,7.791,1.784,-6.337\C,0,7.888,0.521,-7.174\C,0,6.983,0.55
 4,-8.391\O,0,6.894,-0.478,-9.09\O,0,6.357,1.606,-8.646\N,0,12.403,3.17
 3,-3.862\N,0,13.341,2.706,-1.291\N,0,11.114,1.069,-0.755\N,0,10.119,1.
 648,-3.315\Fe,0,11.722,2.174,-2.311\H,0,11.39301548,7.59530484,-0.4945
 9044\H,0,9.71568828,7.86922777,-0.90030753\H,0,10.15134638,7.34887162,
 0.70981612\H,0,12.13475414,5.31903192,-1.6937994\H,0,8.68088072,3.0385
 6669,-1.03456622\H,0,16.12537355,-0.70615757,-4.76608356\H,0,15.576774
 29,-2.33661723,-4.45996785\H,0,14.99647121,-1.4680826,-5.86066861\H,0,
 14.40076373,1.3017994,-3.98960941\H,0,11.38334878,-1.13758422,-2.41677
 629\H,0,10.24220082,2.92579471,-6.46668767\H,0,15.29388273,4.76755728,
 -3.14654883\H,0,13.43167283,1.15988615,1.71898945\H,0,8.08093901,-0.34
 767135,-1.45183054\H,0,15.83157875,4.76053392,-5.47349037\H,0,14.92068
 971,5.19801828,-6.89895705\H,0,14.86393187,6.21541865,-5.47954108\H,0,
 13.30389399,4.85992132,-7.83496116\H,0,11.49510642,4.48705096,-7.68018
 638\H,0,12.7334206,3.26008784,-9.39994796\H,0,11.94937887,2.25147381,-
 8.05731015\H,0,17.57858644,3.776441,-0.5132645\H,0,16.93363033,4.55312
 077,-1.93940153\H,0,16.70312161,5.28160954,-0.36802109\H,0,16.62586767
 ,1.59821028,1.09939356\H,0,15.08553266,3.5720822,2.86191462\H,0,16.474
 53864,2.4530382,3.36500796\H,0,10.92579482,-0.809282,3.54429134\H,0,10
 .90915833,0.41913513,2.91535244\H,0,11.21262451,-1.42145384,2.34103579
 \H,0,8.03498904,-1.33202301,0.38352821\H,0,9.49755029,-1.78263903,3.03
 208992\H,0,7.85949217,-2.46718181,2.50023771\H,0,6.21394285,0.14807279
 ,-4.78162092\H,0,6.55871955,-0.46999403,-3.1840637\H,0,5.96216789,1.16
 058706,-3.38001795\H,0,8.34176467,2.53970743,-6.85706207\H,0,6.7530930
 8,1.93072391,-6.12224124\H,0,7.52444511,-0.27299895,-6.55570112\H,0,8.
 88931937,0.49072568,-7.54995609\H,0,7.68908665,-0.92343443,-9.39170413
 \H,0,15.93354949,2.48202666,-8.18109166\H,0,8.28782269,5.36325904,-0.1
 0970934\H,0,13.09388415,-2.61900255,-3.55591233\\Version=ES64L-G16RevA
 .03\State=6-A\HF=-3627.4249789\S2=8.759211\S2-1=0.\S2A=8.750025\RMSD=2
 .753e-09\Dipole=0.5599011,-0.2435855,0.7884493\Quadrupole=-9.1860997,1
 3.809707,-4.6236073,10.7774018,-44.8863071,12.2747119\PG=C01 [X(C42H44
 Fe1N8O4)]\\@


 MANHOOD BEGINS BY TRYING TO SHAVE FACE,
 AND ENDS BY TRYING TO SAVE FACE.
 Job cpu time:       2 days 21 hours  9 minutes 38.9 seconds.
 Elapsed time:       0 days 17 hours 22 minutes 29.8 seconds.
 File lengths (MBytes):  RWF=   4466 Int=      0 D2E=      0 Chk=    304 Scr=      1
 Normal termination of Gaussian 16 at Thu Oct 20 19:03:42 2022.
