 Entering Gaussian System, Link 0=g16
 Input=/work/kleich/bench/splitthejobs/1es1/1es105/1es105.com
 Output=/work/kleich/bench/splitthejobs/1es1/1es105/1es105.log
 Initial command:
 /afs/math/software/gaussian/g16.A03/g16/l1.exe "/scratch/kleich_gaussian.4E2ZOwW/Gau-25713.inp" -scrdir="/scratch/kleich_gaussian.4E2ZOwW/"
 Entering Link 1 = /afs/math/software/gaussian/g16.A03/g16/l1.exe PID=     25714.
  
 Copyright (c) 1988,1990,1992,1993,1995,1998,2003,2009,2016,
            Gaussian, Inc.  All Rights Reserved.
  
 This is part of the Gaussian(R) 16 program.  It is based on
 the Gaussian(R) 09 system (copyright 2009, Gaussian, Inc.),
 the Gaussian(R) 03 system (copyright 2003, Gaussian, Inc.),
 the Gaussian(R) 98 system (copyright 1998, Gaussian, Inc.),
 the Gaussian(R) 94 system (copyright 1995, Gaussian, Inc.),
 the Gaussian 92(TM) system (copyright 1992, Gaussian, Inc.),
 the Gaussian 90(TM) system (copyright 1990, Gaussian, Inc.),
 the Gaussian 88(TM) system (copyright 1988, Gaussian, Inc.),
 the Gaussian 86(TM) system (copyright 1986, Carnegie Mellon
 University), and the Gaussian 82(TM) system (copyright 1983,
 Carnegie Mellon University). Gaussian is a federally registered
 trademark of Gaussian, Inc.
  
 This software contains proprietary and confidential information,
 including trade secrets, belonging to Gaussian, Inc.
  
 This software is provided under written license and may be
 used, copied, transmitted, or stored only in accord with that
 written license.
  
 The following legend is applicable only to US Government
 contracts under FAR:
  
                    RESTRICTED RIGHTS LEGEND
  
 Use, reproduction and disclosure by the US Government is
 subject to restrictions as set forth in subparagraphs (a)
 and (c) of the Commercial Computer Software - Restricted
 Rights clause in FAR 52.227-19.
  
 Gaussian, Inc.
 340 Quinnipiac St., Bldg. 40, Wallingford CT 06492
  
  
 ---------------------------------------------------------------
 Warning -- This program may not be used in any manner that
 competes with the business of Gaussian, Inc. or will provide
 assistance to any competitor of Gaussian, Inc.  The licensee
 of this program is prohibited from giving any competitor of
 Gaussian, Inc. access to this program.  By using this program,
 the user acknowledges that Gaussian, Inc. is engaged in the
 business of creating and licensing software in the field of
 computational chemistry and represents and warrants to the
 licensee that it is not a competitor of Gaussian, Inc. and that
 it will not use this program in any manner prohibited above.
 ---------------------------------------------------------------
  

 Cite this work as:
 Gaussian 16, Revision A.03,
 M. J. Frisch, G. W. Trucks, H. B. Schlegel, G. E. Scuseria, 
 M. A. Robb, J. R. Cheeseman, G. Scalmani, V. Barone, 
 G. A. Petersson, H. Nakatsuji, X. Li, M. Caricato, A. V. Marenich, 
 J. Bloino, B. G. Janesko, R. Gomperts, B. Mennucci, H. P. Hratchian, 
 J. V. Ortiz, A. F. Izmaylov, J. L. Sonnenberg, D. Williams-Young, 
 F. Ding, F. Lipparini, F. Egidi, J. Goings, B. Peng, A. Petrone, 
 T. Henderson, D. Ranasinghe, V. G. Zakrzewski, J. Gao, N. Rega, 
 G. Zheng, W. Liang, M. Hada, M. Ehara, K. Toyota, R. Fukuda, 
 J. Hasegawa, M. Ishida, T. Nakajima, Y. Honda, O. Kitao, H. Nakai, 
 T. Vreven, K. Throssell, J. A. Montgomery, Jr., J. E. Peralta, 
 F. Ogliaro, M. J. Bearpark, J. J. Heyd, E. N. Brothers, K. N. Kudin, 
 V. N. Staroverov, T. A. Keith, R. Kobayashi, J. Normand, 
 K. Raghavachari, A. P. Rendell, J. C. Burant, S. S. Iyengar, 
 J. Tomasi, M. Cossi, J. M. Millam, M. Klene, C. Adamo, R. Cammi, 
 J. W. Ochterski, R. L. Martin, K. Morokuma, O. Farkas, 
 J. B. Foresman, and D. J. Fox, Gaussian, Inc., Wallingford CT, 2016.
 
 ******************************************
 Gaussian 16:  AM64L-G16RevA.03 25-Dec-2016
                12-Oct-2022 
 ******************************************
 %nprocs=12
 Will use up to   12 processors via shared memory.
 %mem=16GB
 %oldchk=1es1_II_S.chk
 %chk=1es1_II_Q.chk
 Copying data from "1es1_II_S.chk" to current chk file "1es1_II_Q.chk"
 IOpt=  2 FromEx=T IUOpen= 4 IOptOp= 5 NList=   0 IFRang= 0 IUIn= 4 IUOut= 2.
 ----------------------------------------------------------------------
 # PBE1PBE/def2TZVP empiricaldispersion=GD3BJ int=(grid=ultrafine) geom
 =check pop=nbo
 ----------------------------------------------------------------------
 1/29=2,38=1,172=1/1;
 2/12=2,40=1/2;
 3/5=44,7=101,11=2,14=-4,25=1,30=1,74=-13,75=-5,124=41/1,2,3;
 4//1;
 5/5=2,38=5/2;
 6/7=2,8=2,9=2,10=2,28=1,40=1/1,7;
 99/5=1,9=1/99;
 ---------
 1es1_II_Q
 ---------
 Structure from the checkpoint file:  "1es1_II_Q.chk"
 Charge =  0 Multiplicity = 5
 Z-Matrix found in chk file.
 C,0,10.389,7.264,-0.33
 C,0,10.259,5.837,-0.756
 N,0,9.134,5.066,-0.552
 C,0,11.151,5.032,-1.386
 C,0,9.377,3.851,-1.051
 N,0,10.59,3.786,-1.567
 C,0,15.294,-1.376,-4.837
 C,0,14.155,-0.842,-4.034
 N,0,13.153,-1.622,-3.506
 C,0,13.828,0.437,-3.727
 C,0,12.272,-0.809,-2.914
 N,0,12.643,0.45,-3.024
 C,0,10.604,2.74,-5.477
 C,0,14.465,4.118,-2.957
 C,0,13.023,1.409,0.762
 C,0,8.949,0.248,-1.643
 C,0,11.847,3.243,-5.138
 C,0,12.689,3.98,-6.045
 C,0,13.741,4.42,-5.313
 C,0,13.553,3.927,-3.964
 C,0,14.926,5.206,-5.829
 C,0,12.516,4.197,-7.544
 C,0,12.704,2.938,-8.38
 C,0,14.03,2.26,-8.115
 O,0,15.081,2.905,-8.307
 O,0,14.021,1.08,-7.709
 C,0,14.378,3.519,-1.705
 C,0,15.454,3.576,-0.732
 C,0,15.067,2.779,0.297
 C,0,13.74,2.28,-0.026
 C,0,16.767,4.356,-0.901
 C,0,15.891,2.344,1.32
 C,0,15.811,2.826,2.613
 C,0,11.803,0.824,0.411
 C,0,11.068,-0.079,1.279
 C,0,9.894,-0.389,0.647
 C,0,9.929,0.33,-0.627
 C,0,11.49,-0.455,2.707
 C,0,8.843,-1.203,1.073
 C,0,8.724,-1.87,2.298
 C,0,9.038,0.896,-2.887
 C,0,8.005,0.907,-3.919
 C,0,8.492,1.577,-4.993
 C,0,9.801,2.015,-4.623
 C,0,6.58,0.399,-3.808
 C,0,7.791,1.784,-6.337
 C,0,7.888,0.521,-7.174
 C,0,6.983,0.554,-8.391
 O,0,6.894,-0.478,-9.09
 O,0,6.357,1.606,-8.646
 N,0,12.403,3.173,-3.862
 N,0,13.341,2.706,-1.291
 N,0,11.114,1.069,-0.755
 N,0,10.119,1.648,-3.315
 Fe,0,11.722,2.174,-2.311
 H,0,11.39301548,7.59530484,-0.49459044
 H,0,9.71568828,7.86922777,-0.90030753
 H,0,10.15134638,7.34887162,0.70981612
 H,0,12.13475414,5.31903192,-1.6937994
 H,0,8.68088072,3.03856669,-1.03456622
 H,0,16.12537355,-0.70615757,-4.76608356
 H,0,15.57677429,-2.33661723,-4.45996785
 H,0,14.99647121,-1.4680826,-5.86066861
 H,0,14.40076373,1.3017994,-3.98960941
 H,0,11.38334878,-1.13758422,-2.41677629
 H,0,10.24220082,2.92579471,-6.46668767
 H,0,15.29388273,4.76755728,-3.14654883
 H,0,13.43167283,1.15988615,1.71898945
 H,0,8.08093901,-0.34767135,-1.45183054
 H,0,15.83157875,4.76053392,-5.47349037
 H,0,14.92068971,5.19801828,-6.89895705
 H,0,14.86393187,6.21541865,-5.47954108
 H,0,13.30389399,4.85992132,-7.83496116
 H,0,11.49510642,4.48705096,-7.68018638
 H,0,12.7334206,3.26008784,-9.39994796
 H,0,11.94937887,2.25147381,-8.05731015
 H,0,17.57858644,3.776441,-0.5132645
 H,0,16.93363033,4.55312077,-1.93940153
 H,0,16.70312161,5.28160954,-0.36802109
 H,0,16.62586767,1.59821028,1.09939356
 H,0,15.08553266,3.5720822,2.86191462
 H,0,16.47453864,2.4530382,3.36500796
 H,0,10.92579482,-0.809282,3.54429134
 H,0,10.90915833,0.41913513,2.91535244
 H,0,11.21262451,-1.42145384,2.34103579
 H,0,8.03498904,-1.33202301,0.38352821
 H,0,9.49755029,-1.78263903,3.03208992
 H,0,7.85949217,-2.46718181,2.50023771
 H,0,6.21394285,0.14807279,-4.78162092
 H,0,6.55871955,-0.46999403,-3.1840637
 H,0,5.96216789,1.16058706,-3.38001795
 H,0,8.34176467,2.53970743,-6.85706207
 H,0,6.75309308,1.93072391,-6.12224124
 H,0,7.52444511,-0.27299895,-6.55570112
 H,0,8.88931937,0.49072568,-7.54995609
 H,0,7.68908665,-0.92343443,-9.39170413
 H,0,15.93354949,2.48202666,-8.18109166
 H,0,8.28782269,5.36325904,-0.10970934
 H,0,13.09388415,-2.61900255,-3.55591233
 Recover connectivity data from disk.
 Center=     11.71287671      2.01178952     -2.94560547
 Residue   0                        charge    0.00000000 layers R        AvRTP=      2.58417927    243.74169436    156.17688519
 Residue   4                        charge    0.00000000 layers R        AvRTP=      0.00000000      0.00000000      0.00000000
 Residue   2 PDB Number    63_A HIS charge    0.00000000 layers R        AvRTP=      3.70683377    309.56710070    105.84552655
 Residue   3 PDB Number   201_A HEM charge    0.00000000 layers R        AvRTP=      0.13368844    219.02449887    106.40813221
 Residue   1 PDB Number    39_A HIS charge    0.00000000 layers R        AvRTP=      4.44151601    111.69608844     61.45485724
 Stoichiometry    C42H44FeN8O4(5)
 Framework group  C1[X(C42H44FeN8O4)]
 Deg. of freedom   291
 Full point group                 C1      NOp   1
 Largest Abelian subgroup         C1      NOp   1
 Largest concise Abelian subgroup C1      NOp   1
                         Standard orientation:                         
 ---------------------------------------------------------------------
 Center     Atomic      Atomic             Coordinates (Angstroms)
 Number     Number       Type             X           Y           Z
 ---------------------------------------------------------------------
      1          6           0       -2.376143   -0.158234    5.582419
      2          6           0       -1.849930    0.387159    4.293872
      3          7           0       -1.578163    1.720338    4.069240
      4          6           0       -1.548717   -0.252873    3.136194
      5          6           0       -1.134542    1.839813    2.814967
      6          7           0       -1.100846    0.666369    2.211854
      7          6           0        0.492488   -2.311109   -4.720870
      8          6           0        0.137980   -1.290222   -3.691599
      9          7           0        0.064346    0.060284   -3.940392
     10          6           0       -0.100267   -1.434919   -2.365205
     11          6           0       -0.206164    0.674143   -2.783848
     12          7           0       -0.314690   -0.196163   -1.801193
     13          6           0        2.580579   -0.318988    0.848554
     14          6           0       -1.264239   -3.212404    0.802467
     15          6           0       -4.021767    0.450955   -0.689125
     16          6           0       -0.217458    3.474221   -0.347774
     17          6           0        1.777270   -1.444853    0.838492
     18          6           0        2.264017   -2.780018    1.073423
     19          6           0        1.170587   -3.578740    1.124239
     20          6           0        0.017919   -2.732608    0.892698
     21          6           0        1.165071   -5.080504    1.305762
     22          6           0        3.705352   -3.264006    1.184463
     23          6           0        4.484369   -3.201514   -0.122651
     24          6           0        3.787773   -3.935281   -1.247163
     25          8           0        3.539582   -5.150158   -1.105867
     26          8           0        3.483353   -3.294029   -2.273536
     27          6           0       -2.358136   -2.441833    0.423677
     28          6           0       -3.661609   -3.015666    0.141846
     29          6           0       -4.426249   -1.992472   -0.318825
     30          6           0       -3.606946   -0.792234   -0.269507
     31          6           0       -4.035878   -4.497255    0.302308
     32          6           0       -5.654240   -2.134150   -0.940674
     33          6           0       -6.851707   -1.801503   -0.335703
     34          6           0       -3.211060    1.587157   -0.764124
     35          6           0       -3.691543    2.887398   -1.197214
     36          6           0       -2.653297    3.770407   -1.070169
     37          6           0       -1.526759    2.985827   -0.563604
     38          6           0       -5.149860    3.203268   -1.560783
     39          6           0       -2.612248    5.139281   -1.340673
     40          6           0       -3.665314    5.955020   -1.771133
     41          6           0        0.865427    2.684600    0.075569
     42          6           0        2.203748    3.173138    0.395667
     43          6           0        2.980533    2.102598    0.695824
     44          6           0        2.127857    0.959533    0.603244
     45          6           0        2.657374    4.615141    0.521609
     46          6           0        4.473976    2.120190    1.027343
     47          6           0        5.287805    2.260104   -0.246727
     48          6           0        6.749057    2.565944    0.022361
     49          8           0        7.490249    2.815605   -0.952242
     50          8           0        7.155736    2.563120    1.204820
     51          7           0        0.392524   -1.422220    0.682998
     52          7           0       -2.311195   -1.089399    0.147173
     53          7           0       -1.889324    1.643010   -0.384390
     54          7           0        0.818749    1.315536    0.277398
     55         26           0       -0.735671    0.118124    0.211960
     56          1           0       -2.614104   -1.194289    5.460501
     57          1           0       -1.633566   -0.050194    6.345182
     58          1           0       -3.257406    0.379406    5.863877
     59          1           0       -1.643811   -1.305175    2.967324
     60          1           0       -0.845035    2.763880    2.359791
     61          1           0        0.080271   -3.257980   -4.440846
     62          1           0        0.094253   -2.015042   -5.668843
     63          1           0        1.557109   -2.392243   -4.790868
     64          1           0       -0.118932   -2.365957   -1.838213
     65          1           0       -0.319469    1.732174   -2.671455
     66          1           0        3.621272   -0.448991    1.060585
     67          1           0       -1.432828   -4.242466    1.037944
     68          1           0       -5.045785    0.556158   -0.981046
     69          1           0       -0.039022    4.515368   -0.518278
     70          1           0        0.526475   -5.526125    0.571925
     71          1           0        2.159653   -5.457507    1.189248
     72          1           0        0.805182   -5.320142    2.284513
     73          1           0        3.645179   -4.301769    1.438093
     74          1           0        4.192268   -2.578813    1.846521
     75          1           0        5.400510   -3.726017    0.051942
     76          1           0        4.504190   -2.170421   -0.407877
     77          1           0       -4.661787   -4.797231   -0.512033
     78          1           0       -3.146086   -5.091526    0.305958
     79          1           0       -4.560390   -4.634746    1.224741
     80          1           0       -5.677991   -2.519990   -1.938403
     81          1           0       -6.857699   -1.413469    0.661440
     82          1           0       -7.772686   -1.932032   -0.864533
     83          1           0       -5.696987    4.122782   -1.567480
     84          1           0       -5.179180    3.402799   -0.509961
     85          1           0       -4.651642    3.703182   -2.365001
     86          1           0       -1.666594    5.620645   -1.203096
     87          1           0       -4.637172    5.535750   -1.927995
     88          1           0       -3.498367    6.997800   -1.943294
     89          1           0        3.710180    4.674988    0.340178
     90          1           0        2.137293    5.216486   -0.194491
     91          1           0        2.444630    4.971112    1.507978
     92          1           0        4.708531    1.160070    1.437286
     93          1           0        4.650106    3.005054    1.602577
     94          1           0        4.895156    3.114761   -0.756911
     95          1           0        5.267897    1.299752   -0.718136
     96          1           0        7.501935    2.226079   -1.709819
     97          1           0        3.132192   -5.643275   -1.821736
     98          1           0       -1.692688    2.464403    4.727458
     99          1           0        0.190561    0.503883   -4.827686
 ---------------------------------------------------------------------
 Rotational constants (GHZ):           0.0601254           0.0458176           0.0361345
 Standard basis: def2TZVP (5D, 7F)
 There are  2260 symmetry adapted cartesian basis functions of A   symmetry.
 There are  1983 symmetry adapted basis functions of A   symmetry.
  1983 basis functions,  3208 primitive gaussians,  2260 cartesian basis functions
   207 alpha electrons      203 beta electrons
       nuclear repulsion energy      8970.5809964871 Hartrees.
 NAtoms=   99 NActive=   99 NUniq=   99 SFac= 1.00D+00 NAtFMM=   60 NAOKFM=T Big=T
 Integral buffers will be    131072 words long.
 Raffenetti 2 integral format.
 Two-electron integral symmetry is turned on.
 Nuclear repulsion after empirical dispersion term =     8970.4364949169 Hartrees.
 One-electron integrals computed using PRISM.
   1 Symmetry operations used in ECPInt.
 ECPInt:  NShTT=  308505 NPrTT=  954269 LenC2=  226969 LenP2D=  452321.
 LDataN:  DoStor=T MaxTD1= 6 Len=  172
 NBasis=  1983 RedAO= T EigKep=  2.85D-06  NBF=  1983
 NBsUse=  1983 1.00D-06 EigRej= -1.00D+00 NBFU=  1983
 ExpMin= 4.20D-02 ExpMax= 3.01D+05 ExpMxC= 2.91D+03 IAcc=3 IRadAn=         5 AccDes= 0.00D+00
 Harris functional with IExCor= 1009 and IRadAn=       5 diagonalized for initial guess.
 HarFok:  IExCor= 1009 AccDes= 0.00D+00 IRadAn=         5 IDoV= 1 UseB2=F ITyADJ=14
 ICtDFT=  3500011 ScaDFX=  1.000000  1.000000  1.000000  1.000000
 FoFCou: FMM=F IPFlag=           0 FMFlag=      100000 FMFlg1=        2001
         NFxFlg=           0 DoJE=T BraDBF=F KetDBF=T FulRan=T
         wScrn=  0.000000 ICntrl=       500 IOpCl=  0 I1Cent=   200000004 NGrid=           0
         NMat0=    1 NMatS0=      1 NMatT0=    0 NMatD0=    1 NMtDS0=    0 NMtDT0=    0
 Petite list used in FoFCou.
 Initial guess <Sx>= 0.0000 <Sy>= 0.0000 <Sz>= 2.0000 <S**2>= 6.0000 S= 2.0000
 Requested convergence on RMS density matrix=1.00D-08 within 128 cycles.
 Requested convergence on MAX density matrix=1.00D-06.
 Requested convergence on             energy=1.00D-06.
 No special actions if energy rises.
 EnCoef did     6 forward-backward iterations
 EnCoef did     2 forward-backward iterations
 EnCoef did     8 forward-backward iterations
 Restarting incremental Fock formation.
 Restarting incremental Fock formation.
 SCF Done:  E(UPBE1PBE) =  -3627.46139488     A.U. after   55 cycles
            NFock= 55  Conv=0.11D-08     -V/T= 2.0032
 <Sx>= 0.0000 <Sy>= 0.0000 <Sz>= 2.0000 <S**2>= 6.0767 S= 2.0153
 <L.S>= 0.000000000000E+00
 Annihilation of the first spin contaminant:
 S**2 before annihilation     6.0767,   after     6.0019

 **********************************************************************

            Population analysis using the SCF density.

 **********************************************************************

 Orbital symmetries:
 Alpha Orbitals:
       Occupied  (A) (A) (A) (A) (A) (A) (A) (A) (A) (A) (A) (A)
                 (A) (A) (A) (A) (A) (A) (A) (A) (A) (A) (A) (A)
                 (A) (A) (A) (A) (A) (A) (A) (A) (A) (A) (A) (A)
                 (A) (A) (A) (A) (A) (A) (A) (A) (A) (A) (A) (A)
                 (A) (A) (A) (A) (A) (A) (A) (A) (A) (A) (A) (A)
                 (A) (A) (A) (A) (A) (A) (A) (A) (A) (A) (A) (A)
                 (A) (A) (A) (A) (A) (A) (A) (A) (A) (A) (A) (A)
                 (A) (A) (A) (A) (A) (A) (A) (A) (A) (A) (A) (A)
                 (A) (A) (A) (A) (A) (A) (A) (A) (A) (A) (A) (A)
                 (A) (A) (A) (A) (A) (A) (A) (A) (A) (A) (A) (A)
                 (A) (A) (A) (A) (A) (A) (A) (A) (A) (A) (A) (A)
                 (A) (A) (A) (A) (A) (A) (A) (A) (A) (A) (A) (A)
                 (A) (A) (A) (A) (A) (A) (A) (A) (A) (A) (A) (A)
                 (A) (A) (A) (A) (A) (A) (A) (A) (A) (A) (A) (A)
                 (A) (A) (A) (A) (A) (A) (A) (A) (A) (A) (A) (A)
                 (A) (A) (A) (A) (A) (A) (A) (A) (A) (A) (A) (A)
                 (A) (A) (A) (A) (A) (A) (A) (A) (A) (A) (A) (A)
                 (A) (A) (A)
       Virtual   (A) (A) (A) (A) (A) (A) (A) (A) (A) (A) (A) (A)
                 (A) (A) (A) (A) (A) (A) (A) (A) (A) (A) (A) (A)
                 (A) (A) (A) (A) (A) (A) (A) (A) (A) (A) (A) (A)
                 (A) (A) (A) (A) (A) (A) (A) (A) (A) (A) (A) (A)
                 (A) (A) (A) (A) (A) (A) (A) (A) (A) (A) (A) (A)
                 (A) (A) (A) (A) (A) (A) (A) (A) (A) (A) (A) (A)
                 (A) (A) (A) (A) (A) (A) (A) (A) (A) (A) (A) (A)
                 (A) (A) (A) (A) (A) (A) (A) (A) (A) (A) (A) (A)
                 (A) (A) (A) (A) (A) (A) (A) (A) (A) (A) (A) (A)
                 (A) (A) (A) (A) (A) (A) (A) (A) (A) (A) (A) (A)
                 (A) (A) (A) (A) (A) (A) (A) (A) (A) (A) (A) (A)
                 (A) (A) (A) (A) (A) (A) (A) (A) (A) (A) (A) (A)
                 (A) (A) (A) (A) (A) (A) (A) (A) (A) (A) (A) (A)
                 (A) (A) (A) (A) (A) (A) (A) (A) (A) (A) (A) (A)
                 (A) (A) (A) (A) (A) (A) (A) (A) (A) (A) (A) (A)
                 (A) (A) (A) (A) (A) (A) (A) (A) (A) (A) (A) (A)
                 (A) (A) (A) (A) (A) (A) (A) (A) (A) (A) (A) (A)
                 (A) (A) (A) (A) (A) (A) (A) (A) (A) (A) (A) (A)
                 (A) (A) (A) (A) (A) (A) (A) (A) (A) (A) (A) (A)
                 (A) (A) (A) (A) (A) (A) (A) (A) (A) (A) (A) (A)
                 (A) (A) (A) (A) (A) (A) (A) (A) (A) (A) (A) (A)
                 (A) (A) (A) (A) (A) (A) (A) (A) (A) (A) (A) (A)
                 (A) (A) (A) (A) (A) (A) (A) (A) (A) (A) (A) (A)
                 (A) (A) (A) (A) (A) (A) (A) (A) (A) (A) (A) (A)
                 (A) (A) (A) (A) (A) (A) (A) (A) (A) (A) (A) (A)
                 (A) (A) (A) (A) (A) (A) (A) (A) (A) (A) (A) (A)
                 (A) (A) (A) (A) (A) (A) (A) (A) (A) (A) (A) (A)
                 (A) (A) (A) (A) (A) (A) (A) (A) (A) (A) (A) (A)
                 (A) (A) (A) (A) (A) (A) (A) (A) (A) (A) (A) (A)
                 (A) (A) (A) (A) (A) (A) (A) (A) (A) (A) (A) (A)
                 (A) (A) (A) (A) (A) (A) (A) (A) (A) (A) (A) (A)
                 (A) (A) (A) (A) (A) (A) (A) (A) (A) (A) (A) (A)
                 (A) (A) (A) (A) (A) (A) (A) (A) (A) (A) (A) (A)
                 (A) (A) (A) (A) (A) (A) (A) (A) (A) (A) (A) (A)
                 (A) (A) (A) (A) (A) (A) (A) (A) (A) (A) (A) (A)
                 (A) (A) (A) (A) (A) (A) (A) (A) (A) (A) (A) (A)
                 (A) (A) (A) (A) (A) (A) (A) (A) (A) (A) (A) (A)
                 (A) (A) (A) (A) (A) (A) (A) (A) (A) (A) (A) (A)
                 (A) (A) (A) (A) (A) (A) (A) (A) (A) (A) (A) (A)
                 (A) (A) (A) (A) (A) (A) (A) (A) (A) (A) (A) (A)
                 (A) (A) (A) (A) (A) (A) (A) (A) (A) (A) (A) (A)
                 (A) (A) (A) (A) (A) (A) (A) (A) (A) (A) (A) (A)
                 (A) (A) (A) (A) (A) (A) (A) (A) (A) (A) (A) (A)
                 (A) (A) (A) (A) (A) (A) (A) (A) (A) (A) (A) (A)
                 (A) (A) (A) (A) (A) (A) (A) (A) (A) (A) (A) (A)
                 (A) (A) (A) (A) (A) (A) (A) (A) (A) (A) (A) (A)
                 (A) (A) (A) (A) (A) (A) (A) (A) (A) (A) (A) (A)
                 (A) (A) (A) (A) (A) (A) (A) (A) (A) (A) (A) (A)
                 (A) (A) (A) (A) (A) (A) (A) (A) (A) (A) (A) (A)
                 (A) (A) (A) (A) (A) (A) (A) (A) (A) (A) (A) (A)
                 (A) (A) (A) (A) (A) (A) (A) (A) (A) (A) (A) (A)
                 (A) (A) (A) (A) (A) (A) (A) (A) (A) (A) (A) (A)
                 (A) (A) (A) (A) (A) (A) (A) (A) (A) (A) (A) (A)
                 (A) (A) (A) (A) (A) (A) (A) (A) (A) (A) (A) (A)
                 (A) (A) (A) (A) (A) (A) (A) (A) (A) (A) (A) (A)
                 (A) (A) (A) (A) (A) (A) (A) (A) (A) (A) (A) (A)
                 (A) (A) (A) (A) (A) (A) (A) (A) (A) (A) (A) (A)
                 (A) (A) (A) (A) (A) (A) (A) (A) (A) (A) (A) (A)
                 (A) (A) (A) (A) (A) (A) (A) (A) (A) (A) (A) (A)
                 (A) (A) (A) (A) (A) (A) (A) (A) (A) (A) (A) (A)
                 (A) (A) (A) (A) (A) (A) (A) (A) (A) (A) (A) (A)
                 (A) (A) (A) (A) (A) (A) (A) (A) (A) (A) (A) (A)
                 (A) (A) (A) (A) (A) (A) (A) (A) (A) (A) (A) (A)
                 (A) (A) (A) (A) (A) (A) (A) (A) (A) (A) (A) (A)
                 (A) (A) (A) (A) (A) (A) (A) (A) (A) (A) (A) (A)
                 (A) (A) (A) (A) (A) (A) (A) (A) (A) (A) (A) (A)
                 (A) (A) (A) (A) (A) (A) (A) (A) (A) (A) (A) (A)
                 (A) (A) (A) (A) (A) (A) (A) (A) (A) (A) (A) (A)
                 (A) (A) (A) (A) (A) (A) (A) (A) (A) (A) (A) (A)
                 (A) (A) (A) (A) (A) (A) (A) (A) (A) (A) (A) (A)
                 (A) (A) (A) (A) (A) (A) (A) (A) (A) (A) (A) (A)
                 (A) (A) (A) (A) (A) (A) (A) (A) (A) (A) (A) (A)
                 (A) (A) (A) (A) (A) (A) (A) (A) (A) (A) (A) (A)
                 (A) (A) (A) (A) (A) (A) (A) (A) (A) (A) (A) (A)
                 (A) (A) (A) (A) (A) (A) (A) (A) (A) (A) (A) (A)
                 (A) (A) (A) (A) (A) (A) (A) (A) (A) (A) (A) (A)
                 (A) (A) (A) (A) (A) (A) (A) (A) (A) (A) (A) (A)
                 (A) (A) (A) (A) (A) (A) (A) (A) (A) (A) (A) (A)
                 (A) (A) (A) (A) (A) (A) (A) (A) (A) (A) (A) (A)
                 (A) (A) (A) (A) (A) (A) (A) (A) (A) (A) (A) (A)
                 (A) (A) (A) (A) (A) (A) (A) (A) (A) (A) (A) (A)
                 (A) (A) (A) (A) (A) (A) (A) (A) (A) (A) (A) (A)
                 (A) (A) (A) (A) (A) (A) (A) (A) (A) (A) (A) (A)
                 (A) (A) (A) (A) (A) (A) (A) (A) (A) (A) (A) (A)
                 (A) (A) (A) (A) (A) (A) (A) (A) (A) (A) (A) (A)
                 (A) (A) (A) (A) (A) (A) (A) (A) (A) (A) (A) (A)
                 (A) (A) (A) (A) (A) (A) (A) (A) (A) (A) (A) (A)
                 (A) (A) (A) (A) (A) (A) (A) (A) (A) (A) (A) (A)
                 (A) (A) (A) (A) (A) (A) (A) (A) (A) (A) (A) (A)
                 (A) (A) (A) (A) (A) (A) (A) (A) (A) (A) (A) (A)
                 (A) (A) (A) (A) (A) (A) (A) (A) (A) (A) (A) (A)
                 (A) (A) (A) (A) (A) (A) (A) (A) (A) (A) (A) (A)
                 (A) (A) (A) (A) (A) (A) (A) (A) (A) (A) (A) (A)
                 (A) (A) (A) (A) (A) (A) (A) (A) (A) (A) (A) (A)
                 (A) (A) (A) (A) (A) (A) (A) (A) (A) (A) (A) (A)
                 (A) (A) (A) (A) (A) (A) (A) (A) (A) (A) (A) (A)
                 (A) (A) (A) (A) (A) (A) (A) (A) (A) (A) (A) (A)
                 (A) (A) (A) (A) (A) (A) (A) (A) (A) (A) (A) (A)
                 (A) (A) (A) (A) (A) (A) (A) (A) (A) (A) (A) (A)
                 (A) (A) (A) (A) (A) (A) (A) (A) (A) (A) (A) (A)
                 (A) (A) (A) (A) (A) (A) (A) (A) (A) (A) (A) (A)
                 (A) (A) (A) (A) (A) (A) (A) (A) (A) (A) (A) (A)
                 (A) (A) (A) (A) (A) (A) (A) (A) (A) (A) (A) (A)
                 (A) (A) (A) (A) (A) (A) (A) (A) (A) (A) (A) (A)
                 (A) (A) (A) (A) (A) (A) (A) (A) (A) (A) (A) (A)
                 (A) (A) (A) (A) (A) (A) (A) (A) (A) (A) (A) (A)
                 (A) (A) (A) (A) (A) (A) (A) (A) (A) (A) (A) (A)
                 (A) (A) (A) (A) (A) (A) (A) (A) (A) (A) (A) (A)
                 (A) (A) (A) (A) (A) (A) (A) (A) (A) (A) (A) (A)
                 (A) (A) (A) (A) (A) (A) (A) (A) (A) (A) (A) (A)
                 (A) (A) (A) (A) (A) (A) (A) (A) (A) (A) (A) (A)
                 (A) (A) (A) (A) (A) (A) (A) (A) (A) (A) (A) (A)
                 (A) (A) (A) (A) (A) (A) (A) (A) (A) (A) (A) (A)
                 (A) (A) (A) (A) (A) (A) (A) (A) (A) (A) (A) (A)
                 (A) (A) (A) (A) (A) (A) (A) (A) (A) (A) (A) (A)
                 (A) (A) (A) (A) (A) (A) (A) (A) (A) (A) (A) (A)
                 (A) (A) (A) (A) (A) (A) (A) (A) (A) (A) (A) (A)
                 (A) (A) (A) (A) (A) (A) (A) (A) (A) (A) (A) (A)
                 (A) (A) (A) (A) (A) (A) (A) (A) (A) (A) (A) (A)
                 (A) (A) (A) (A) (A) (A) (A) (A) (A) (A) (A) (A)
                 (A) (A) (A) (A) (A) (A) (A) (A) (A) (A) (A) (A)
                 (A) (A) (A) (A) (A) (A) (A) (A) (A) (A) (A) (A)
                 (A) (A) (A) (A) (A) (A) (A) (A) (A) (A) (A) (A)
                 (A) (A) (A) (A) (A) (A) (A) (A) (A) (A) (A) (A)
                 (A) (A) (A) (A) (A) (A) (A) (A) (A) (A) (A) (A)
                 (A) (A) (A) (A) (A) (A) (A) (A) (A) (A) (A) (A)
                 (A) (A) (A) (A) (A) (A) (A) (A) (A) (A) (A) (A)
                 (A) (A) (A) (A) (A) (A) (A) (A) (A) (A) (A) (A)
                 (A) (A) (A) (A) (A) (A) (A) (A) (A) (A) (A) (A)
                 (A) (A) (A) (A) (A) (A) (A) (A) (A) (A) (A) (A)
                 (A) (A) (A) (A) (A) (A) (A) (A) (A) (A) (A) (A)
                 (A) (A) (A) (A) (A) (A) (A) (A) (A) (A) (A) (A)
                 (A) (A) (A) (A) (A) (A) (A) (A) (A) (A) (A) (A)
                 (A) (A) (A) (A) (A) (A) (A) (A) (A) (A) (A) (A)
                 (A) (A) (A) (A) (A) (A) (A) (A) (A) (A) (A) (A)
                 (A) (A) (A) (A) (A) (A) (A) (A) (A) (A) (A) (A)
                 (A) (A) (A) (A) (A) (A) (A) (A) (A) (A) (A) (A)
                 (A) (A) (A) (A) (A) (A) (A) (A) (A) (A) (A) (A)
                 (A) (A) (A) (A) (A) (A) (A) (A) (A) (A) (A) (A)
                 (A) (A) (A) (A) (A) (A) (A) (A) (A) (A) (A) (A)
                 (A) (A) (A) (A) (A) (A) (A) (A) (A) (A) (A) (A)
                 (A) (A) (A) (A) (A) (A) (A) (A) (A) (A) (A) (A)
                 (A) (A) (A) (A) (A) (A) (A) (A) (A) (A) (A) (A)
                 (A) (A) (A) (A) (A) (A) (A) (A) (A) (A) (A) (A)
                 (A) (A) (A) (A) (A) (A) (A) (A) (A) (A) (A) (A)
                 (A) (A) (A) (A) (A) (A) (A) (A) (A) (A) (A) (A)
                 (A) (A) (A) (A) (A) (A) (A) (A) (A) (A) (A) (A)
                 (A) (A) (A) (A) (A) (A) (A) (A) (A) (A) (A) (A)
 Beta  Orbitals:
       Occupied  (A) (A) (A) (A) (A) (A) (A) (A) (A) (A) (A) (A)
                 (A) (A) (A) (A) (A) (A) (A) (A) (A) (A) (A) (A)
                 (A) (A) (A) (A) (A) (A) (A) (A) (A) (A) (A) (A)
                 (A) (A) (A) (A) (A) (A) (A) (A) (A) (A) (A) (A)
                 (A) (A) (A) (A) (A) (A) (A) (A) (A) (A) (A) (A)
                 (A) (A) (A) (A) (A) (A) (A) (A) (A) (A) (A) (A)
                 (A) (A) (A) (A) (A) (A) (A) (A) (A) (A) (A) (A)
                 (A) (A) (A) (A) (A) (A) (A) (A) (A) (A) (A) (A)
                 (A) (A) (A) (A) (A) (A) (A) (A) (A) (A) (A) (A)
                 (A) (A) (A) (A) (A) (A) (A) (A) (A) (A) (A) (A)
                 (A) (A) (A) (A) (A) (A) (A) (A) (A) (A) (A) (A)
                 (A) (A) (A) (A) (A) (A) (A) (A) (A) (A) (A) (A)
                 (A) (A) (A) (A) (A) (A) (A) (A) (A) (A) (A) (A)
                 (A) (A) (A) (A) (A) (A) (A) (A) (A) (A) (A) (A)
                 (A) (A) (A) (A) (A) (A) (A) (A) (A) (A) (A) (A)
                 (A) (A) (A) (A) (A) (A) (A) (A) (A) (A) (A) (A)
                 (A) (A) (A) (A) (A) (A) (A) (A) (A) (A) (A)
       Virtual   (A) (A) (A) (A) (A) (A) (A) (A) (A) (A) (A) (A)
                 (A) (A) (A) (A) (A) (A) (A) (A) (A) (A) (A) (A)
                 (A) (A) (A) (A) (A) (A) (A) (A) (A) (A) (A) (A)
                 (A) (A) (A) (A) (A) (A) (A) (A) (A) (A) (A) (A)
                 (A) (A) (A) (A) (A) (A) (A) (A) (A) (A) (A) (A)
                 (A) (A) (A) (A) (A) (A) (A) (A) (A) (A) (A) (A)
                 (A) (A) (A) (A) (A) (A) (A) (A) (A) (A) (A) (A)
                 (A) (A) (A) (A) (A) (A) (A) (A) (A) (A) (A) (A)
                 (A) (A) (A) (A) (A) (A) (A) (A) (A) (A) (A) (A)
                 (A) (A) (A) (A) (A) (A) (A) (A) (A) (A) (A) (A)
                 (A) (A) (A) (A) (A) (A) (A) (A) (A) (A) (A) (A)
                 (A) (A) (A) (A) (A) (A) (A) (A) (A) (A) (A) (A)
                 (A) (A) (A) (A) (A) (A) (A) (A) (A) (A) (A) (A)
                 (A) (A) (A) (A) (A) (A) (A) (A) (A) (A) (A) (A)
                 (A) (A) (A) (A) (A) (A) (A) (A) (A) (A) (A) (A)
                 (A) (A) (A) (A) (A) (A) (A) (A) (A) (A) (A) (A)
                 (A) (A) (A) (A) (A) (A) (A) (A) (A) (A) (A) (A)
                 (A) (A) (A) (A) (A) (A) (A) (A) (A) (A) (A) (A)
                 (A) (A) (A) (A) (A) (A) (A) (A) (A) (A) (A) (A)
                 (A) (A) (A) (A) (A) (A) (A) (A) (A) (A) (A) (A)
                 (A) (A) (A) (A) (A) (A) (A) (A) (A) (A) (A) (A)
                 (A) (A) (A) (A) (A) (A) (A) (A) (A) (A) (A) (A)
                 (A) (A) (A) (A) (A) (A) (A) (A) (A) (A) (A) (A)
                 (A) (A) (A) (A) (A) (A) (A) (A) (A) (A) (A) (A)
                 (A) (A) (A) (A) (A) (A) (A) (A) (A) (A) (A) (A)
                 (A) (A) (A) (A) (A) (A) (A) (A) (A) (A) (A) (A)
                 (A) (A) (A) (A) (A) (A) (A) (A) (A) (A) (A) (A)
                 (A) (A) (A) (A) (A) (A) (A) (A) (A) (A) (A) (A)
                 (A) (A) (A) (A) (A) (A) (A) (A) (A) (A) (A) (A)
                 (A) (A) (A) (A) (A) (A) (A) (A) (A) (A) (A) (A)
                 (A) (A) (A) (A) (A) (A) (A) (A) (A) (A) (A) (A)
                 (A) (A) (A) (A) (A) (A) (A) (A) (A) (A) (A) (A)
                 (A) (A) (A) (A) (A) (A) (A) (A) (A) (A) (A) (A)
                 (A) (A) (A) (A) (A) (A) (A) (A) (A) (A) (A) (A)
                 (A) (A) (A) (A) (A) (A) (A) (A) (A) (A) (A) (A)
                 (A) (A) (A) (A) (A) (A) (A) (A) (A) (A) (A) (A)
                 (A) (A) (A) (A) (A) (A) (A) (A) (A) (A) (A) (A)
                 (A) (A) (A) (A) (A) (A) (A) (A) (A) (A) (A) (A)
                 (A) (A) (A) (A) (A) (A) (A) (A) (A) (A) (A) (A)
                 (A) (A) (A) (A) (A) (A) (A) (A) (A) (A) (A) (A)
                 (A) (A) (A) (A) (A) (A) (A) (A) (A) (A) (A) (A)
                 (A) (A) (A) (A) (A) (A) (A) (A) (A) (A) (A) (A)
                 (A) (A) (A) (A) (A) (A) (A) (A) (A) (A) (A) (A)
                 (A) (A) (A) (A) (A) (A) (A) (A) (A) (A) (A) (A)
                 (A) (A) (A) (A) (A) (A) (A) (A) (A) (A) (A) (A)
                 (A) (A) (A) (A) (A) (A) (A) (A) (A) (A) (A) (A)
                 (A) (A) (A) (A) (A) (A) (A) (A) (A) (A) (A) (A)
                 (A) (A) (A) (A) (A) (A) (A) (A) (A) (A) (A) (A)
                 (A) (A) (A) (A) (A) (A) (A) (A) (A) (A) (A) (A)
                 (A) (A) (A) (A) (A) (A) (A) (A) (A) (A) (A) (A)
                 (A) (A) (A) (A) (A) (A) (A) (A) (A) (A) (A) (A)
                 (A) (A) (A) (A) (A) (A) (A) (A) (A) (A) (A) (A)
                 (A) (A) (A) (A) (A) (A) (A) (A) (A) (A) (A) (A)
                 (A) (A) (A) (A) (A) (A) (A) (A) (A) (A) (A) (A)
                 (A) (A) (A) (A) (A) (A) (A) (A) (A) (A) (A) (A)
                 (A) (A) (A) (A) (A) (A) (A) (A) (A) (A) (A) (A)
                 (A) (A) (A) (A) (A) (A) (A) (A) (A) (A) (A) (A)
                 (A) (A) (A) (A) (A) (A) (A) (A) (A) (A) (A) (A)
                 (A) (A) (A) (A) (A) (A) (A) (A) (A) (A) (A) (A)
                 (A) (A) (A) (A) (A) (A) (A) (A) (A) (A) (A) (A)
                 (A) (A) (A) (A) (A) (A) (A) (A) (A) (A) (A) (A)
                 (A) (A) (A) (A) (A) (A) (A) (A) (A) (A) (A) (A)
                 (A) (A) (A) (A) (A) (A) (A) (A) (A) (A) (A) (A)
                 (A) (A) (A) (A) (A) (A) (A) (A) (A) (A) (A) (A)
                 (A) (A) (A) (A) (A) (A) (A) (A) (A) (A) (A) (A)
                 (A) (A) (A) (A) (A) (A) (A) (A) (A) (A) (A) (A)
                 (A) (A) (A) (A) (A) (A) (A) (A) (A) (A) (A) (A)
                 (A) (A) (A) (A) (A) (A) (A) (A) (A) (A) (A) (A)
                 (A) (A) (A) (A) (A) (A) (A) (A) (A) (A) (A) (A)
                 (A) (A) (A) (A) (A) (A) (A) (A) (A) (A) (A) (A)
                 (A) (A) (A) (A) (A) (A) (A) (A) (A) (A) (A) (A)
                 (A) (A) (A) (A) (A) (A) (A) (A) (A) (A) (A) (A)
                 (A) (A) (A) (A) (A) (A) (A) (A) (A) (A) (A) (A)
                 (A) (A) (A) (A) (A) (A) (A) (A) (A) (A) (A) (A)
                 (A) (A) (A) (A) (A) (A) (A) (A) (A) (A) (A) (A)
                 (A) (A) (A) (A) (A) (A) (A) (A) (A) (A) (A) (A)
                 (A) (A) (A) (A) (A) (A) (A) (A) (A) (A) (A) (A)
                 (A) (A) (A) (A) (A) (A) (A) (A) (A) (A) (A) (A)
                 (A) (A) (A) (A) (A) (A) (A) (A) (A) (A) (A) (A)
                 (A) (A) (A) (A) (A) (A) (A) (A) (A) (A) (A) (A)
                 (A) (A) (A) (A) (A) (A) (A) (A) (A) (A) (A) (A)
                 (A) (A) (A) (A) (A) (A) (A) (A) (A) (A) (A) (A)
                 (A) (A) (A) (A) (A) (A) (A) (A) (A) (A) (A) (A)
                 (A) (A) (A) (A) (A) (A) (A) (A) (A) (A) (A) (A)
                 (A) (A) (A) (A) (A) (A) (A) (A) (A) (A) (A) (A)
                 (A) (A) (A) (A) (A) (A) (A) (A) (A) (A) (A) (A)
                 (A) (A) (A) (A) (A) (A) (A) (A) (A) (A) (A) (A)
                 (A) (A) (A) (A) (A) (A) (A) (A) (A) (A) (A) (A)
                 (A) (A) (A) (A) (A) (A) (A) (A) (A) (A) (A) (A)
                 (A) (A) (A) (A) (A) (A) (A) (A) (A) (A) (A) (A)
                 (A) (A) (A) (A) (A) (A) (A) (A) (A) (A) (A) (A)
                 (A) (A) (A) (A) (A) (A) (A) (A) (A) (A) (A) (A)
                 (A) (A) (A) (A) (A) (A) (A) (A) (A) (A) (A) (A)
                 (A) (A) (A) (A) (A) (A) (A) (A) (A) (A) (A) (A)
                 (A) (A) (A) (A) (A) (A) (A) (A) (A) (A) (A) (A)
                 (A) (A) (A) (A) (A) (A) (A) (A) (A) (A) (A) (A)
                 (A) (A) (A) (A) (A) (A) (A) (A) (A) (A) (A) (A)
                 (A) (A) (A) (A) (A) (A) (A) (A) (A) (A) (A) (A)
                 (A) (A) (A) (A) (A) (A) (A) (A) (A) (A) (A) (A)
                 (A) (A) (A) (A) (A) (A) (A) (A) (A) (A) (A) (A)
                 (A) (A) (A) (A) (A) (A) (A) (A) (A) (A) (A) (A)
                 (A) (A) (A) (A) (A) (A) (A) (A) (A) (A) (A) (A)
                 (A) (A) (A) (A) (A) (A) (A) (A) (A) (A) (A) (A)
                 (A) (A) (A) (A) (A) (A) (A) (A) (A) (A) (A) (A)
                 (A) (A) (A) (A) (A) (A) (A) (A) (A) (A) (A) (A)
                 (A) (A) (A) (A) (A) (A) (A) (A) (A) (A) (A) (A)
                 (A) (A) (A) (A) (A) (A) (A) (A) (A) (A) (A) (A)
                 (A) (A) (A) (A) (A) (A) (A) (A) (A) (A) (A) (A)
                 (A) (A) (A) (A) (A) (A) (A) (A) (A) (A) (A) (A)
                 (A) (A) (A) (A) (A) (A) (A) (A) (A) (A) (A) (A)
                 (A) (A) (A) (A) (A) (A) (A) (A) (A) (A) (A) (A)
                 (A) (A) (A) (A) (A) (A) (A) (A) (A) (A) (A) (A)
                 (A) (A) (A) (A) (A) (A) (A) (A) (A) (A) (A) (A)
                 (A) (A) (A) (A) (A) (A) (A) (A) (A) (A) (A) (A)
                 (A) (A) (A) (A) (A) (A) (A) (A) (A) (A) (A) (A)
                 (A) (A) (A) (A) (A) (A) (A) (A) (A) (A) (A) (A)
                 (A) (A) (A) (A) (A) (A) (A) (A) (A) (A) (A) (A)
                 (A) (A) (A) (A) (A) (A) (A) (A) (A) (A) (A) (A)
                 (A) (A) (A) (A) (A) (A) (A) (A) (A) (A) (A) (A)
                 (A) (A) (A) (A) (A) (A) (A) (A) (A) (A) (A) (A)
                 (A) (A) (A) (A) (A) (A) (A) (A) (A) (A) (A) (A)
                 (A) (A) (A) (A) (A) (A) (A) (A) (A) (A) (A) (A)
                 (A) (A) (A) (A) (A) (A) (A) (A) (A) (A) (A) (A)
                 (A) (A) (A) (A) (A) (A) (A) (A) (A) (A) (A) (A)
                 (A) (A) (A) (A) (A) (A) (A) (A) (A) (A) (A) (A)
                 (A) (A) (A) (A) (A) (A) (A) (A) (A) (A) (A) (A)
                 (A) (A) (A) (A) (A) (A) (A) (A) (A) (A) (A) (A)
                 (A) (A) (A) (A) (A) (A) (A) (A) (A) (A) (A) (A)
                 (A) (A) (A) (A) (A) (A) (A) (A) (A) (A) (A) (A)
                 (A) (A) (A) (A) (A) (A) (A) (A) (A) (A) (A) (A)
                 (A) (A) (A) (A) (A) (A) (A) (A) (A) (A) (A) (A)
                 (A) (A) (A) (A) (A) (A) (A) (A) (A) (A) (A) (A)
                 (A) (A) (A) (A) (A) (A) (A) (A) (A) (A) (A) (A)
                 (A) (A) (A) (A) (A) (A) (A) (A) (A) (A) (A) (A)
                 (A) (A) (A) (A) (A) (A) (A) (A) (A) (A) (A) (A)
                 (A) (A) (A) (A) (A) (A) (A) (A) (A) (A) (A) (A)
                 (A) (A) (A) (A) (A) (A) (A) (A) (A) (A) (A) (A)
                 (A) (A) (A) (A) (A) (A) (A) (A) (A) (A) (A) (A)
                 (A) (A) (A) (A) (A) (A) (A) (A) (A) (A) (A) (A)
                 (A) (A) (A) (A) (A) (A) (A) (A) (A) (A) (A) (A)
                 (A) (A) (A) (A) (A) (A) (A) (A) (A) (A) (A) (A)
                 (A) (A) (A) (A) (A) (A) (A) (A) (A) (A) (A) (A)
                 (A) (A) (A) (A) (A) (A) (A) (A) (A) (A) (A) (A)
                 (A) (A) (A) (A) (A) (A) (A) (A) (A) (A) (A) (A)
                 (A) (A) (A) (A) (A) (A) (A) (A) (A) (A) (A) (A)
                 (A) (A) (A) (A) (A) (A) (A) (A) (A) (A) (A) (A)
                 (A) (A) (A) (A) (A) (A) (A) (A) (A) (A) (A) (A)
                 (A) (A) (A) (A) (A) (A) (A) (A) (A) (A) (A) (A)
                 (A) (A) (A) (A)
 The electronic state is 5-A.
 Alpha  occ. eigenvalues -- -256.38877 -30.19723 -26.03127 -26.00971 -26.00899
 Alpha  occ. eigenvalues --  -19.27322 -19.26328 -19.17780 -19.17353 -14.45199
 Alpha  occ. eigenvalues --  -14.44535 -14.38828 -14.38299 -14.37093 -14.36965
 Alpha  occ. eigenvalues --  -14.36764 -14.36561 -10.34987 -10.34929 -10.28524
 Alpha  occ. eigenvalues --  -10.27789 -10.26268 -10.25475 -10.25006 -10.24628
 Alpha  occ. eigenvalues --  -10.24348 -10.24024 -10.23532 -10.23512 -10.23414
 Alpha  occ. eigenvalues --  -10.23328 -10.23287 -10.23122 -10.23118 -10.23074
 Alpha  occ. eigenvalues --  -10.22810 -10.22771 -10.22747 -10.22168 -10.21933
 Alpha  occ. eigenvalues --  -10.21783 -10.21730 -10.21495 -10.21052 -10.21044
 Alpha  occ. eigenvalues --  -10.21035 -10.20933 -10.20774 -10.20712 -10.20707
 Alpha  occ. eigenvalues --  -10.20688 -10.20685 -10.20664 -10.20347 -10.20301
 Alpha  occ. eigenvalues --  -10.20083 -10.19928 -10.19264 -10.17046  -3.59396
 Alpha  occ. eigenvalues --   -2.39140  -2.33362  -2.33245  -1.17729  -1.16981
 Alpha  occ. eigenvalues --   -1.06520  -1.05966  -1.02656  -1.02355  -0.96943
 Alpha  occ. eigenvalues --   -0.95933  -0.95755  -0.94843  -0.91587  -0.91097
 Alpha  occ. eigenvalues --   -0.84315  -0.84257  -0.83523  -0.82914  -0.82129
 Alpha  occ. eigenvalues --   -0.81505  -0.80737  -0.80305  -0.79609  -0.79165
 Alpha  occ. eigenvalues --   -0.78447  -0.77117  -0.75924  -0.74050  -0.73290
 Alpha  occ. eigenvalues --   -0.72823  -0.72546  -0.72216  -0.72021  -0.70868
 Alpha  occ. eigenvalues --   -0.70308  -0.69652  -0.68597  -0.66013  -0.65550
 Alpha  occ. eigenvalues --   -0.65443  -0.64874  -0.64523  -0.64117  -0.62334
 Alpha  occ. eigenvalues --   -0.61681  -0.61380  -0.61202  -0.58070  -0.56894
 Alpha  occ. eigenvalues --   -0.56607  -0.56217  -0.55052  -0.54373  -0.54044
 Alpha  occ. eigenvalues --   -0.53708  -0.52833  -0.52387  -0.52065  -0.51543
 Alpha  occ. eigenvalues --   -0.50914  -0.50749  -0.50568  -0.49672  -0.48944
 Alpha  occ. eigenvalues --   -0.48428  -0.48319  -0.48274  -0.48087  -0.47964
 Alpha  occ. eigenvalues --   -0.47798  -0.47630  -0.47509  -0.47273  -0.46458
 Alpha  occ. eigenvalues --   -0.45388  -0.45030  -0.44690  -0.44601  -0.44399
 Alpha  occ. eigenvalues --   -0.44096  -0.43680  -0.43602  -0.43404  -0.43313
 Alpha  occ. eigenvalues --   -0.43077  -0.42905  -0.42700  -0.42672  -0.42657
 Alpha  occ. eigenvalues --   -0.42556  -0.42427  -0.42184  -0.41954  -0.41321
 Alpha  occ. eigenvalues --   -0.41055  -0.40932  -0.40717  -0.40447  -0.40045
 Alpha  occ. eigenvalues --   -0.39795  -0.39389  -0.38939  -0.38854  -0.38674
 Alpha  occ. eigenvalues --   -0.38394  -0.38269  -0.38129  -0.37757  -0.37519
 Alpha  occ. eigenvalues --   -0.37295  -0.36919  -0.36708  -0.36503  -0.36300
 Alpha  occ. eigenvalues --   -0.36137  -0.35922  -0.35179  -0.34432  -0.34106
 Alpha  occ. eigenvalues --   -0.33997  -0.33753  -0.32661  -0.32518  -0.32392
 Alpha  occ. eigenvalues --   -0.32042  -0.31387  -0.30987  -0.30690  -0.30392
 Alpha  occ. eigenvalues --   -0.29813  -0.27757  -0.27489  -0.27247  -0.26584
 Alpha  occ. eigenvalues --   -0.25940  -0.24670  -0.23943  -0.23681  -0.23064
 Alpha  occ. eigenvalues --   -0.22721  -0.22213  -0.21353  -0.19223  -0.18704
 Alpha  occ. eigenvalues --   -0.18253  -0.10977
 Alpha virt. eigenvalues --   -0.06186  -0.05958  -0.02359  -0.00371   0.00191
 Alpha virt. eigenvalues --    0.00658   0.01162   0.01439   0.01699   0.02000
 Alpha virt. eigenvalues --    0.02514   0.02545   0.02657   0.03387   0.04331
 Alpha virt. eigenvalues --    0.04840   0.05065   0.05371   0.05395   0.05777
 Alpha virt. eigenvalues --    0.06160   0.06497   0.06559   0.07241   0.07327
 Alpha virt. eigenvalues --    0.07750   0.07969   0.08146   0.08757   0.09019
 Alpha virt. eigenvalues --    0.09463   0.09548   0.09868   0.10216   0.10325
 Alpha virt. eigenvalues --    0.10782   0.10979   0.11328   0.11403   0.11882
 Alpha virt. eigenvalues --    0.11953   0.12164   0.12303   0.12373   0.12602
 Alpha virt. eigenvalues --    0.13022   0.13439   0.13587   0.13799   0.14063
 Alpha virt. eigenvalues --    0.14263   0.14426   0.14638   0.14774   0.14907
 Alpha virt. eigenvalues --    0.15193   0.15474   0.15554   0.15700   0.15925
 Alpha virt. eigenvalues --    0.15947   0.16167   0.16317   0.16637   0.16775
 Alpha virt. eigenvalues --    0.16974   0.17071   0.17506   0.17772   0.17870
 Alpha virt. eigenvalues --    0.18167   0.18394   0.18548   0.18803   0.19124
 Alpha virt. eigenvalues --    0.19235   0.19551   0.19684   0.19769   0.19999
 Alpha virt. eigenvalues --    0.20181   0.20398   0.20512   0.20843   0.21037
 Alpha virt. eigenvalues --    0.21238   0.21416   0.21535   0.21868   0.21925
 Alpha virt. eigenvalues --    0.22323   0.22533   0.22655   0.22994   0.23290
 Alpha virt. eigenvalues --    0.23378   0.23529   0.23714   0.24106   0.24389
 Alpha virt. eigenvalues --    0.24575   0.24674   0.24912   0.25205   0.25334
 Alpha virt. eigenvalues --    0.25532   0.25813   0.26140   0.26330   0.26387
 Alpha virt. eigenvalues --    0.26487   0.26912   0.27011   0.27251   0.27358
 Alpha virt. eigenvalues --    0.27559   0.27693   0.28007   0.28239   0.28694
 Alpha virt. eigenvalues --    0.28820   0.28912   0.29274   0.29468   0.29500
 Alpha virt. eigenvalues --    0.29615   0.30044   0.30200   0.30431   0.30744
 Alpha virt. eigenvalues --    0.30902   0.31094   0.31242   0.31569   0.31689
 Alpha virt. eigenvalues --    0.31881   0.32178   0.32550   0.32828   0.33209
 Alpha virt. eigenvalues --    0.33390   0.33610   0.33694   0.33851   0.34206
 Alpha virt. eigenvalues --    0.34382   0.34798   0.34934   0.34960   0.35224
 Alpha virt. eigenvalues --    0.35399   0.35516   0.35860   0.36056   0.36213
 Alpha virt. eigenvalues --    0.36525   0.36775   0.37145   0.37279   0.37385
 Alpha virt. eigenvalues --    0.37568   0.37924   0.37956   0.38025   0.38289
 Alpha virt. eigenvalues --    0.38653   0.38749   0.39064   0.39143   0.39454
 Alpha virt. eigenvalues --    0.39608   0.39733   0.39940   0.40154   0.40385
 Alpha virt. eigenvalues --    0.40597   0.40761   0.40881   0.41064   0.41248
 Alpha virt. eigenvalues --    0.41439   0.41577   0.41662   0.42019   0.42090
 Alpha virt. eigenvalues --    0.42424   0.42433   0.42667   0.42817   0.42901
 Alpha virt. eigenvalues --    0.43010   0.43164   0.43293   0.43620   0.43718
 Alpha virt. eigenvalues --    0.43968   0.44130   0.44347   0.44609   0.44716
 Alpha virt. eigenvalues --    0.44838   0.44937   0.45246   0.45301   0.45462
 Alpha virt. eigenvalues --    0.45672   0.45777   0.45936   0.46314   0.46388
 Alpha virt. eigenvalues --    0.46549   0.46648   0.46795   0.47018   0.47352
 Alpha virt. eigenvalues --    0.47480   0.47624   0.47849   0.47941   0.47998
 Alpha virt. eigenvalues --    0.48180   0.48335   0.48402   0.48613   0.48931
 Alpha virt. eigenvalues --    0.49121   0.49251   0.49486   0.49715   0.49839
 Alpha virt. eigenvalues --    0.49922   0.50251   0.50451   0.50606   0.50908
 Alpha virt. eigenvalues --    0.51036   0.51368   0.51436   0.51630   0.51751
 Alpha virt. eigenvalues --    0.51885   0.51977   0.52313   0.52444   0.52875
 Alpha virt. eigenvalues --    0.53022   0.53088   0.53371   0.53578   0.53861
 Alpha virt. eigenvalues --    0.53900   0.54144   0.54373   0.54431   0.54485
 Alpha virt. eigenvalues --    0.54734   0.54920   0.55298   0.55722   0.55763
 Alpha virt. eigenvalues --    0.56091   0.56170   0.56319   0.56582   0.56760
 Alpha virt. eigenvalues --    0.56827   0.56969   0.57326   0.57622   0.57778
 Alpha virt. eigenvalues --    0.57835   0.58193   0.58315   0.58454   0.58642
 Alpha virt. eigenvalues --    0.58750   0.58866   0.59140   0.59387   0.59472
 Alpha virt. eigenvalues --    0.59723   0.59875   0.60192   0.60561   0.60809
 Alpha virt. eigenvalues --    0.60883   0.61028   0.61267   0.61655   0.61796
 Alpha virt. eigenvalues --    0.62318   0.62427   0.62955   0.63102   0.63151
 Alpha virt. eigenvalues --    0.63425   0.63514   0.63741   0.64202   0.64294
 Alpha virt. eigenvalues --    0.64601   0.64905   0.65074   0.65504   0.65829
 Alpha virt. eigenvalues --    0.66013   0.66199   0.66356   0.66597   0.66944
 Alpha virt. eigenvalues --    0.67042   0.67255   0.67710   0.67913   0.68062
 Alpha virt. eigenvalues --    0.68305   0.68532   0.68691   0.69292   0.69386
 Alpha virt. eigenvalues --    0.69776   0.69986   0.70193   0.70367   0.70947
 Alpha virt. eigenvalues --    0.71192   0.71346   0.71415   0.71599   0.71828
 Alpha virt. eigenvalues --    0.72401   0.72642   0.73072   0.73105   0.73456
 Alpha virt. eigenvalues --    0.73798   0.74039   0.74195   0.74631   0.74722
 Alpha virt. eigenvalues --    0.75025   0.75371   0.75436   0.75837   0.76134
 Alpha virt. eigenvalues --    0.76321   0.76601   0.76861   0.77076   0.77687
 Alpha virt. eigenvalues --    0.77821   0.77870   0.78055   0.78459   0.78644
 Alpha virt. eigenvalues --    0.79093   0.79313   0.79508   0.79742   0.80057
 Alpha virt. eigenvalues --    0.80145   0.80460   0.80587   0.81013   0.81501
 Alpha virt. eigenvalues --    0.81522   0.81944   0.82243   0.82713   0.82922
 Alpha virt. eigenvalues --    0.83054   0.83388   0.83767   0.83937   0.84318
 Alpha virt. eigenvalues --    0.84543   0.84872   0.84923   0.85364   0.85507
 Alpha virt. eigenvalues --    0.85780   0.86389   0.86456   0.86705   0.87027
 Alpha virt. eigenvalues --    0.87338   0.87755   0.87973   0.88132   0.88297
 Alpha virt. eigenvalues --    0.88816   0.89031   0.89149   0.89782   0.90025
 Alpha virt. eigenvalues --    0.90283   0.90703   0.90984   0.91296   0.91581
 Alpha virt. eigenvalues --    0.91726   0.92213   0.92338   0.92754   0.92929
 Alpha virt. eigenvalues --    0.93085   0.93246   0.93551   0.93923   0.94115
 Alpha virt. eigenvalues --    0.94218   0.94583   0.94942   0.95425   0.95501
 Alpha virt. eigenvalues --    0.95915   0.96083   0.96274   0.96681   0.96932
 Alpha virt. eigenvalues --    0.97030   0.97389   0.97672   0.97759   0.98153
 Alpha virt. eigenvalues --    0.98271   0.98498   0.99049   0.99346   0.99483
 Alpha virt. eigenvalues --    0.99835   1.00092   1.00287   1.00736   1.00852
 Alpha virt. eigenvalues --    1.01116   1.01227   1.01740   1.02031   1.02468
 Alpha virt. eigenvalues --    1.02518   1.02940   1.03203   1.03542   1.03841
 Alpha virt. eigenvalues --    1.04006   1.04451   1.04657   1.05026   1.05117
 Alpha virt. eigenvalues --    1.05225   1.05452   1.05719   1.06553   1.06681
 Alpha virt. eigenvalues --    1.06872   1.07295   1.07713   1.07883   1.08145
 Alpha virt. eigenvalues --    1.08293   1.08525   1.08849   1.09254   1.09330
 Alpha virt. eigenvalues --    1.10184   1.10297   1.10636   1.10988   1.11375
 Alpha virt. eigenvalues --    1.11808   1.12084   1.12226   1.12903   1.13057
 Alpha virt. eigenvalues --    1.13218   1.13491   1.13606   1.14052   1.14179
 Alpha virt. eigenvalues --    1.14761   1.14769   1.15376   1.15538   1.15762
 Alpha virt. eigenvalues --    1.15901   1.16350   1.16708   1.16886   1.16999
 Alpha virt. eigenvalues --    1.17462   1.17765   1.17900   1.18176   1.18560
 Alpha virt. eigenvalues --    1.18940   1.19341   1.19658   1.20221   1.20387
 Alpha virt. eigenvalues --    1.20874   1.20946   1.21330   1.21787   1.21991
 Alpha virt. eigenvalues --    1.22356   1.22502   1.22927   1.23335   1.23712
 Alpha virt. eigenvalues --    1.23792   1.24240   1.24810   1.25022   1.25723
 Alpha virt. eigenvalues --    1.26079   1.26434   1.26685   1.26873   1.27108
 Alpha virt. eigenvalues --    1.27473   1.27963   1.28219   1.28880   1.29040
 Alpha virt. eigenvalues --    1.29691   1.30016   1.30445   1.30552   1.30853
 Alpha virt. eigenvalues --    1.31329   1.31610   1.32021   1.32491   1.32629
 Alpha virt. eigenvalues --    1.32699   1.33116   1.33492   1.33978   1.34182
 Alpha virt. eigenvalues --    1.34413   1.34529   1.34925   1.35108   1.35558
 Alpha virt. eigenvalues --    1.36054   1.36216   1.36727   1.36903   1.37412
 Alpha virt. eigenvalues --    1.37930   1.38060   1.38592   1.38763   1.38961
 Alpha virt. eigenvalues --    1.39631   1.39948   1.40084   1.40460   1.40737
 Alpha virt. eigenvalues --    1.41430   1.41549   1.42262   1.42759   1.43144
 Alpha virt. eigenvalues --    1.43368   1.43676   1.43905   1.44282   1.44747
 Alpha virt. eigenvalues --    1.45109   1.45292   1.45546   1.45808   1.46008
 Alpha virt. eigenvalues --    1.46685   1.46930   1.47022   1.47660   1.48068
 Alpha virt. eigenvalues --    1.48276   1.48490   1.48797   1.49142   1.49465
 Alpha virt. eigenvalues --    1.49535   1.49910   1.50455   1.50549   1.51033
 Alpha virt. eigenvalues --    1.51661   1.51824   1.52068   1.52494   1.52848
 Alpha virt. eigenvalues --    1.52879   1.53080   1.53174   1.53362   1.53649
 Alpha virt. eigenvalues --    1.53848   1.53900   1.54305   1.54498   1.54780
 Alpha virt. eigenvalues --    1.55053   1.55350   1.55576   1.55919   1.56096
 Alpha virt. eigenvalues --    1.56569   1.56647   1.56936   1.57081   1.57493
 Alpha virt. eigenvalues --    1.57730   1.58064   1.58487   1.58577   1.58727
 Alpha virt. eigenvalues --    1.58900   1.59229   1.59544   1.59919   1.60304
 Alpha virt. eigenvalues --    1.60513   1.60897   1.60907   1.61168   1.61459
 Alpha virt. eigenvalues --    1.61695   1.62108   1.62286   1.62358   1.62685
 Alpha virt. eigenvalues --    1.63124   1.63287   1.63488   1.63689   1.63920
 Alpha virt. eigenvalues --    1.64084   1.64361   1.64671   1.64797   1.64991
 Alpha virt. eigenvalues --    1.65240   1.65402   1.65726   1.65905   1.66253
 Alpha virt. eigenvalues --    1.66573   1.66858   1.67037   1.67366   1.67627
 Alpha virt. eigenvalues --    1.68071   1.68179   1.68366   1.68731   1.68778
 Alpha virt. eigenvalues --    1.68971   1.69219   1.69502   1.69720   1.70268
 Alpha virt. eigenvalues --    1.70304   1.70495   1.70842   1.71417   1.71539
 Alpha virt. eigenvalues --    1.71712   1.72035   1.72179   1.72588   1.73223
 Alpha virt. eigenvalues --    1.73509   1.73646   1.74012   1.74119   1.74467
 Alpha virt. eigenvalues --    1.74901   1.75083   1.75501   1.75802   1.75846
 Alpha virt. eigenvalues --    1.76298   1.76573   1.77309   1.77549   1.77745
 Alpha virt. eigenvalues --    1.78375   1.78728   1.78858   1.79294   1.79944
 Alpha virt. eigenvalues --    1.80161   1.80471   1.80880   1.81337   1.81537
 Alpha virt. eigenvalues --    1.81881   1.82049   1.82290   1.82799   1.83038
 Alpha virt. eigenvalues --    1.83656   1.83723   1.83946   1.84366   1.84617
 Alpha virt. eigenvalues --    1.84901   1.85127   1.85416   1.85827   1.86431
 Alpha virt. eigenvalues --    1.86568   1.86976   1.87069   1.87826   1.88000
 Alpha virt. eigenvalues --    1.88646   1.88812   1.89044   1.89212   1.89875
 Alpha virt. eigenvalues --    1.90251   1.90581   1.90684   1.91161   1.91734
 Alpha virt. eigenvalues --    1.91888   1.92106   1.92514   1.93574   1.93711
 Alpha virt. eigenvalues --    1.93817   1.94302   1.94647   1.95362   1.95907
 Alpha virt. eigenvalues --    1.96089   1.96219   1.96412   1.96785   1.96880
 Alpha virt. eigenvalues --    1.97459   1.97650   1.98191   1.98397   1.98564
 Alpha virt. eigenvalues --    1.99159   1.99372   1.99742   1.99922   2.00179
 Alpha virt. eigenvalues --    2.00606   2.00631   2.01100   2.01507   2.01859
 Alpha virt. eigenvalues --    2.02275   2.02550   2.03060   2.03345   2.03466
 Alpha virt. eigenvalues --    2.03834   2.04114   2.04377   2.04758   2.05130
 Alpha virt. eigenvalues --    2.05649   2.06444   2.06535   2.06799   2.07758
 Alpha virt. eigenvalues --    2.08246   2.08581   2.08970   2.09300   2.09648
 Alpha virt. eigenvalues --    2.09845   2.10081   2.10262   2.10891   2.11249
 Alpha virt. eigenvalues --    2.11657   2.11785   2.12300   2.12570   2.12976
 Alpha virt. eigenvalues --    2.13463   2.13618   2.13897   2.14172   2.14304
 Alpha virt. eigenvalues --    2.14653   2.15165   2.15267   2.15877   2.15992
 Alpha virt. eigenvalues --    2.16482   2.16676   2.17003   2.17319   2.17708
 Alpha virt. eigenvalues --    2.18143   2.18651   2.18756   2.18934   2.19454
 Alpha virt. eigenvalues --    2.19692   2.19888   2.20086   2.20140   2.20577
 Alpha virt. eigenvalues --    2.21165   2.21247   2.21748   2.22084   2.23067
 Alpha virt. eigenvalues --    2.23211   2.23828   2.24006   2.24240   2.24450
 Alpha virt. eigenvalues --    2.24845   2.25282   2.25599   2.26070   2.26477
 Alpha virt. eigenvalues --    2.26717   2.27192   2.27471   2.27943   2.28249
 Alpha virt. eigenvalues --    2.28702   2.28958   2.29395   2.29508   2.30147
 Alpha virt. eigenvalues --    2.30581   2.30943   2.31251   2.31463   2.32123
 Alpha virt. eigenvalues --    2.32456   2.32718   2.33215   2.33521   2.33830
 Alpha virt. eigenvalues --    2.33976   2.34580   2.34786   2.35301   2.35467
 Alpha virt. eigenvalues --    2.35985   2.36177   2.36792   2.36951   2.37138
 Alpha virt. eigenvalues --    2.37684   2.38270   2.38382   2.38949   2.39047
 Alpha virt. eigenvalues --    2.39369   2.39651   2.39920   2.40114   2.40245
 Alpha virt. eigenvalues --    2.40716   2.41052   2.41560   2.41874   2.42257
 Alpha virt. eigenvalues --    2.42527   2.42774   2.43086   2.43199   2.43492
 Alpha virt. eigenvalues --    2.43619   2.43897   2.44407   2.44947   2.45142
 Alpha virt. eigenvalues --    2.45542   2.45906   2.46522   2.46722   2.47106
 Alpha virt. eigenvalues --    2.47471   2.47716   2.48370   2.48994   2.49259
 Alpha virt. eigenvalues --    2.49764   2.49885   2.50265   2.50532   2.50649
 Alpha virt. eigenvalues --    2.51492   2.52068   2.52401   2.52538   2.53162
 Alpha virt. eigenvalues --    2.53391   2.53748   2.54346   2.54395   2.54709
 Alpha virt. eigenvalues --    2.54922   2.55067   2.55654   2.55899   2.56386
 Alpha virt. eigenvalues --    2.56711   2.57242   2.57546   2.57669   2.58332
 Alpha virt. eigenvalues --    2.58560   2.58815   2.59210   2.59343   2.59788
 Alpha virt. eigenvalues --    2.59892   2.60309   2.60553   2.60930   2.60954
 Alpha virt. eigenvalues --    2.61219   2.61584   2.61889   2.62307   2.62466
 Alpha virt. eigenvalues --    2.63075   2.63296   2.63910   2.64332   2.64509
 Alpha virt. eigenvalues --    2.64978   2.65060   2.65328   2.65724   2.65888
 Alpha virt. eigenvalues --    2.66048   2.66616   2.67025   2.67171   2.67473
 Alpha virt. eigenvalues --    2.68106   2.68505   2.68747   2.69040   2.69346
 Alpha virt. eigenvalues --    2.69490   2.69977   2.70359   2.70392   2.70927
 Alpha virt. eigenvalues --    2.71263   2.71684   2.71858   2.71952   2.72535
 Alpha virt. eigenvalues --    2.73114   2.73279   2.73656   2.74352   2.74461
 Alpha virt. eigenvalues --    2.74906   2.75187   2.75686   2.75903   2.76154
 Alpha virt. eigenvalues --    2.76306   2.76725   2.76929   2.77539   2.77638
 Alpha virt. eigenvalues --    2.78110   2.78668   2.78808   2.78921   2.79411
 Alpha virt. eigenvalues --    2.79570   2.79736   2.80362   2.80495   2.80704
 Alpha virt. eigenvalues --    2.80974   2.81255   2.81440   2.82305   2.82456
 Alpha virt. eigenvalues --    2.82908   2.83175   2.83581   2.84090   2.84468
 Alpha virt. eigenvalues --    2.84541   2.85107   2.85416   2.85652   2.85696
 Alpha virt. eigenvalues --    2.85803   2.86429   2.86702   2.86968   2.87187
 Alpha virt. eigenvalues --    2.87669   2.88073   2.88328   2.88601   2.88663
 Alpha virt. eigenvalues --    2.88957   2.89429   2.89703   2.89840   2.90343
 Alpha virt. eigenvalues --    2.90646   2.91314   2.91420   2.91638   2.91897
 Alpha virt. eigenvalues --    2.92294   2.92576   2.92850   2.93089   2.93655
 Alpha virt. eigenvalues --    2.93859   2.94172   2.94295   2.94468   2.94826
 Alpha virt. eigenvalues --    2.95060   2.95350   2.95498   2.95682   2.95922
 Alpha virt. eigenvalues --    2.96558   2.96763   2.97053   2.97500   2.97618
 Alpha virt. eigenvalues --    2.97980   2.98357   2.98836   2.99076   2.99264
 Alpha virt. eigenvalues --    2.99574   2.99731   3.00124   3.00255   3.00396
 Alpha virt. eigenvalues --    3.00846   3.01102   3.01303   3.01571   3.01751
 Alpha virt. eigenvalues --    3.01924   3.02455   3.02679   3.02991   3.03198
 Alpha virt. eigenvalues --    3.03598   3.03798   3.04137   3.04509   3.04571
 Alpha virt. eigenvalues --    3.05221   3.05415   3.05705   3.05971   3.06209
 Alpha virt. eigenvalues --    3.06298   3.06665   3.06832   3.07061   3.07298
 Alpha virt. eigenvalues --    3.07662   3.07880   3.08237   3.08532   3.08700
 Alpha virt. eigenvalues --    3.08962   3.09384   3.09552   3.09768   3.10427
 Alpha virt. eigenvalues --    3.10647   3.10896   3.11007   3.11555   3.11761
 Alpha virt. eigenvalues --    3.11916   3.12044   3.12323   3.12575   3.13016
 Alpha virt. eigenvalues --    3.13291   3.13616   3.13770   3.13976   3.14204
 Alpha virt. eigenvalues --    3.14310   3.14406   3.14857   3.15111   3.15420
 Alpha virt. eigenvalues --    3.15672   3.15981   3.16609   3.16870   3.17033
 Alpha virt. eigenvalues --    3.17360   3.17669   3.17830   3.18060   3.18111
 Alpha virt. eigenvalues --    3.18406   3.18751   3.18956   3.19371   3.19825
 Alpha virt. eigenvalues --    3.19894   3.19988   3.20374   3.20477   3.20803
 Alpha virt. eigenvalues --    3.21331   3.21448   3.21643   3.21863   3.22038
 Alpha virt. eigenvalues --    3.22219   3.22586   3.22754   3.23187   3.23481
 Alpha virt. eigenvalues --    3.23532   3.24065   3.24289   3.24695   3.24712
 Alpha virt. eigenvalues --    3.25096   3.25401   3.25560   3.25876   3.26080
 Alpha virt. eigenvalues --    3.26179   3.26547   3.26676   3.26937   3.27102
 Alpha virt. eigenvalues --    3.27425   3.27621   3.27865   3.28469   3.28697
 Alpha virt. eigenvalues --    3.28866   3.28883   3.29167   3.29408   3.29806
 Alpha virt. eigenvalues --    3.30079   3.30428   3.30833   3.31028   3.31204
 Alpha virt. eigenvalues --    3.31343   3.31481   3.31853   3.32042   3.32417
 Alpha virt. eigenvalues --    3.32530   3.32869   3.32906   3.33079   3.33403
 Alpha virt. eigenvalues --    3.33557   3.33872   3.34058   3.34608   3.34720
 Alpha virt. eigenvalues --    3.34949   3.35110   3.35405   3.35645   3.35793
 Alpha virt. eigenvalues --    3.36411   3.36586   3.36674   3.36911   3.37074
 Alpha virt. eigenvalues --    3.37460   3.37744   3.38086   3.38193   3.38505
 Alpha virt. eigenvalues --    3.38690   3.39035   3.39284   3.39687   3.39899
 Alpha virt. eigenvalues --    3.40080   3.40173   3.40521   3.40882   3.41101
 Alpha virt. eigenvalues --    3.41284   3.41593   3.41743   3.41901   3.42358
 Alpha virt. eigenvalues --    3.42588   3.42805   3.43220   3.43460   3.43701
 Alpha virt. eigenvalues --    3.43990   3.44057   3.44428   3.44515   3.45103
 Alpha virt. eigenvalues --    3.45310   3.45444   3.45666   3.45803   3.45876
 Alpha virt. eigenvalues --    3.46432   3.46559   3.46815   3.47232   3.47460
 Alpha virt. eigenvalues --    3.47524   3.48017   3.48310   3.48676   3.48796
 Alpha virt. eigenvalues --    3.49012   3.49504   3.49821   3.50133   3.50652
 Alpha virt. eigenvalues --    3.50973   3.51134   3.51615   3.51693   3.52040
 Alpha virt. eigenvalues --    3.52334   3.52638   3.53085   3.53221   3.53360
 Alpha virt. eigenvalues --    3.53510   3.53941   3.54123   3.54746   3.55165
 Alpha virt. eigenvalues --    3.55299   3.55778   3.56038   3.56646   3.56913
 Alpha virt. eigenvalues --    3.57240   3.57356   3.57592   3.57993   3.58224
 Alpha virt. eigenvalues --    3.58792   3.59096   3.59550   3.59767   3.59969
 Alpha virt. eigenvalues --    3.60179   3.60345   3.60882   3.61198   3.61451
 Alpha virt. eigenvalues --    3.61984   3.62170   3.62534   3.62919   3.63533
 Alpha virt. eigenvalues --    3.63717   3.64076   3.64188   3.64727   3.65073
 Alpha virt. eigenvalues --    3.65339   3.66064   3.66136   3.66364   3.67023
 Alpha virt. eigenvalues --    3.67220   3.67654   3.67736   3.68229   3.68651
 Alpha virt. eigenvalues --    3.69444   3.69479   3.69642   3.69997   3.70110
 Alpha virt. eigenvalues --    3.70546   3.70595   3.71111   3.71497   3.72162
 Alpha virt. eigenvalues --    3.72231   3.72861   3.73021   3.73238   3.73312
 Alpha virt. eigenvalues --    3.73778   3.74081   3.74476   3.74927   3.75347
 Alpha virt. eigenvalues --    3.75538   3.76139   3.76389   3.76432   3.76876
 Alpha virt. eigenvalues --    3.77495   3.77660   3.77807   3.78425   3.78528
 Alpha virt. eigenvalues --    3.79017   3.79444   3.79537   3.79895   3.80535
 Alpha virt. eigenvalues --    3.81086   3.81452   3.82253   3.82681   3.82887
 Alpha virt. eigenvalues --    3.83210   3.84072   3.84282   3.84569   3.84997
 Alpha virt. eigenvalues --    3.85916   3.86198   3.86645   3.86949   3.87131
 Alpha virt. eigenvalues --    3.87640   3.88267   3.88651   3.89326   3.89592
 Alpha virt. eigenvalues --    3.89921   3.90283   3.90519   3.91689   3.92072
 Alpha virt. eigenvalues --    3.92226   3.92424   3.92688   3.93329   3.93541
 Alpha virt. eigenvalues --    3.94294   3.94726   3.95328   3.95711   3.96526
 Alpha virt. eigenvalues --    3.96674   3.97012   3.98074   3.98688   3.99140
 Alpha virt. eigenvalues --    3.99677   4.00084   4.00287   4.00969   4.01305
 Alpha virt. eigenvalues --    4.02257   4.02763   4.03148   4.03445   4.03680
 Alpha virt. eigenvalues --    4.03968   4.04657   4.05039   4.05272   4.05996
 Alpha virt. eigenvalues --    4.06534   4.07307   4.07544   4.07900   4.08314
 Alpha virt. eigenvalues --    4.08837   4.09360   4.10049   4.10231   4.11550
 Alpha virt. eigenvalues --    4.12402   4.13050   4.13634   4.14573   4.14699
 Alpha virt. eigenvalues --    4.15688   4.15970   4.16189   4.16427   4.17036
 Alpha virt. eigenvalues --    4.17531   4.17802   4.18206   4.18316   4.18782
 Alpha virt. eigenvalues --    4.19466   4.19817   4.20342   4.20811   4.21527
 Alpha virt. eigenvalues --    4.21659   4.22218   4.22814   4.23197   4.23510
 Alpha virt. eigenvalues --    4.23616   4.23885   4.24595   4.24908   4.25174
 Alpha virt. eigenvalues --    4.25927   4.26227   4.26324   4.27247   4.27493
 Alpha virt. eigenvalues --    4.27805   4.28216   4.28387   4.29026   4.29842
 Alpha virt. eigenvalues --    4.30019   4.30299   4.31051   4.31426   4.31519
 Alpha virt. eigenvalues --    4.32094   4.32370   4.32774   4.33507   4.33844
 Alpha virt. eigenvalues --    4.34279   4.35041   4.35383   4.36335   4.37037
 Alpha virt. eigenvalues --    4.37805   4.38379   4.38758   4.38912   4.39287
 Alpha virt. eigenvalues --    4.39693   4.40067   4.41036   4.41615   4.42228
 Alpha virt. eigenvalues --    4.42691   4.42928   4.43745   4.44167   4.44347
 Alpha virt. eigenvalues --    4.45039   4.45861   4.46618   4.46759   4.47488
 Alpha virt. eigenvalues --    4.48065   4.48965   4.49670   4.50325   4.50494
 Alpha virt. eigenvalues --    4.50601   4.51186   4.51516   4.52211   4.53085
 Alpha virt. eigenvalues --    4.54315   4.54869   4.55224   4.55786   4.56866
 Alpha virt. eigenvalues --    4.57241   4.57825   4.58812   4.59199   4.59424
 Alpha virt. eigenvalues --    4.59847   4.60676   4.61581   4.62551   4.62757
 Alpha virt. eigenvalues --    4.63358   4.63439   4.63887   4.64614   4.64976
 Alpha virt. eigenvalues --    4.65932   4.66545   4.67209   4.68603   4.68866
 Alpha virt. eigenvalues --    4.69675   4.69775   4.70454   4.71613   4.71825
 Alpha virt. eigenvalues --    4.72606   4.73628   4.73852   4.74319   4.74503
 Alpha virt. eigenvalues --    4.74680   4.76218   4.76448   4.76516   4.76851
 Alpha virt. eigenvalues --    4.77185   4.77652   4.78087   4.78423   4.79238
 Alpha virt. eigenvalues --    4.79804   4.80207   4.81025   4.81743   4.82032
 Alpha virt. eigenvalues --    4.82836   4.83098   4.83636   4.83963   4.84151
 Alpha virt. eigenvalues --    4.85546   4.86063   4.86233   4.86701   4.87282
 Alpha virt. eigenvalues --    4.87692   4.88639   4.90058   4.90659   4.91258
 Alpha virt. eigenvalues --    4.91341   4.92457   4.93121   4.93682   4.94066
 Alpha virt. eigenvalues --    4.94563   4.94898   4.95057   4.95562   4.96418
 Alpha virt. eigenvalues --    4.97243   4.97639   4.98102   4.98887   4.99552
 Alpha virt. eigenvalues --    4.99999   5.00215   5.01026   5.02577   5.02859
 Alpha virt. eigenvalues --    5.03382   5.03984   5.04413   5.04919   5.06692
 Alpha virt. eigenvalues --    5.07434   5.07714   5.08204   5.09073   5.10343
 Alpha virt. eigenvalues --    5.11264   5.12544   5.13205   5.14649   5.14919
 Alpha virt. eigenvalues --    5.15768   5.16122   5.16664   5.18581   5.19231
 Alpha virt. eigenvalues --    5.20393   5.20436   5.20885   5.21371   5.22014
 Alpha virt. eigenvalues --    5.22077   5.22650   5.22906   5.23015   5.23481
 Alpha virt. eigenvalues --    5.24605   5.24843   5.25214   5.25712   5.26328
 Alpha virt. eigenvalues --    5.28478   5.29373   5.30610   5.31006   5.31750
 Alpha virt. eigenvalues --    5.32225   5.33341   5.34255   5.35413   5.35954
 Alpha virt. eigenvalues --    5.36511   5.37410   5.37834   5.38618   5.39277
 Alpha virt. eigenvalues --    5.40095   5.41404   5.42108   5.43537   5.43953
 Alpha virt. eigenvalues --    5.44209   5.44654   5.45550   5.45860   5.47752
 Alpha virt. eigenvalues --    5.48424   5.49015   5.49292   5.49501   5.51210
 Alpha virt. eigenvalues --    5.51742   5.52413   5.52911   5.53497   5.55437
 Alpha virt. eigenvalues --    5.57124   5.57591   5.58171   5.58307   5.60881
 Alpha virt. eigenvalues --    5.62196   5.62486   5.63196   5.64235   5.64927
 Alpha virt. eigenvalues --    5.65415   5.66834   5.67664   5.67932   5.68946
 Alpha virt. eigenvalues --    5.69354   5.69545   5.70317   5.73166   5.74166
 Alpha virt. eigenvalues --    5.77658   5.79692   5.80634   5.81328   5.83238
 Alpha virt. eigenvalues --    5.84469   5.85801   5.91743   5.92644   5.94921
 Alpha virt. eigenvalues --    5.96015   5.97546   5.99118   6.01415   6.01865
 Alpha virt. eigenvalues --    6.02655   6.03357   6.04441   6.04760   6.05383
 Alpha virt. eigenvalues --    6.08864   6.09398   6.11052   6.13240   6.13974
 Alpha virt. eigenvalues --    6.14328   6.17471   6.17941   6.18495   6.19612
 Alpha virt. eigenvalues --    6.20977   6.27176   6.27893   6.28330   6.29114
 Alpha virt. eigenvalues --    6.32041   6.32926   6.35558   6.36181   6.39026
 Alpha virt. eigenvalues --    6.41164   6.47759   6.48274   6.49534   6.51044
 Alpha virt. eigenvalues --    6.54448   6.67253   6.67936   6.77277   6.77387
 Alpha virt. eigenvalues --    6.85749   6.88516   6.90873   6.94961   6.99650
 Alpha virt. eigenvalues --    7.02419   7.13089   7.14878   7.19524   7.20203
 Alpha virt. eigenvalues --    7.25928   7.36452  22.41107  22.43129  22.44775
 Alpha virt. eigenvalues --   22.52553  22.54164  22.56870  22.57126  22.61190
 Alpha virt. eigenvalues --   22.64227  22.65538  22.72990  22.74316  22.77527
 Alpha virt. eigenvalues --   22.84007  22.85165  22.85331  22.89535  22.93044
 Alpha virt. eigenvalues --   22.97403  22.99881  23.01962  23.06144  23.09244
 Alpha virt. eigenvalues --   23.10749  23.14769  23.18248  23.23200  23.25577
 Alpha virt. eigenvalues --   23.27512  23.30863  23.34057  23.40473  23.44227
 Alpha virt. eigenvalues --   23.55021  23.55841  23.59530  23.60104  23.62800
 Alpha virt. eigenvalues --   23.75876  23.79510  23.79612  23.87827  32.44628
 Alpha virt. eigenvalues --   32.47670  32.80455  32.89365  32.93911  33.05188
 Alpha virt. eigenvalues --   33.15613  33.44356  43.96280  43.96478  43.96766
 Alpha virt. eigenvalues --   44.08664
  Beta  occ. eigenvalues -- -256.38778 -30.13241 -25.96643 -25.96460 -25.95557
  Beta  occ. eigenvalues --  -19.27322 -19.26328 -19.17780 -19.17353 -14.45187
  Beta  occ. eigenvalues --  -14.44522 -14.38590 -14.38034 -14.37095 -14.37019
  Beta  occ. eigenvalues --  -14.36712 -14.36539 -10.34986 -10.34929 -10.28510
  Beta  occ. eigenvalues --  -10.27777 -10.26262 -10.25469 -10.24954 -10.24685
  Beta  occ. eigenvalues --  -10.24441 -10.24093 -10.23550 -10.23509 -10.23306
  Beta  occ. eigenvalues --  -10.23176 -10.23121 -10.23074 -10.23055 -10.22930
  Beta  occ. eigenvalues --  -10.22812 -10.22770 -10.22742 -10.22166 -10.22023
  Beta  occ. eigenvalues --  -10.21776 -10.21726 -10.21396 -10.21075 -10.21040
  Beta  occ. eigenvalues --  -10.20897 -10.20819 -10.20815 -10.20762 -10.20756
  Beta  occ. eigenvalues --  -10.20722 -10.20699 -10.20670 -10.20144 -10.20140
  Beta  occ. eigenvalues --  -10.19969 -10.19738 -10.19012 -10.17037  -3.43808
  Beta  occ. eigenvalues --   -2.19993  -2.19637  -2.15933  -1.17729  -1.16982
  Beta  occ. eigenvalues --   -1.06410  -1.05845  -1.02656  -1.02355  -0.96785
  Beta  occ. eigenvalues --   -0.95774  -0.95612  -0.94689  -0.91357  -0.90843
  Beta  occ. eigenvalues --   -0.84264  -0.84157  -0.83495  -0.82856  -0.81891
  Beta  occ. eigenvalues --   -0.81479  -0.80709  -0.80133  -0.79336  -0.79025
  Beta  occ. eigenvalues --   -0.78342  -0.76919  -0.75847  -0.73756  -0.73180
  Beta  occ. eigenvalues --   -0.72759  -0.72404  -0.72161  -0.71933  -0.70833
  Beta  occ. eigenvalues --   -0.70268  -0.69627  -0.68456  -0.65991  -0.65444
  Beta  occ. eigenvalues --   -0.65250  -0.64667  -0.64252  -0.63929  -0.62279
  Beta  occ. eigenvalues --   -0.61620  -0.61324  -0.60983  -0.57930  -0.56788
  Beta  occ. eigenvalues --   -0.56436  -0.56109  -0.54899  -0.54286  -0.53992
  Beta  occ. eigenvalues --   -0.53598  -0.52783  -0.52346  -0.52040  -0.51490
  Beta  occ. eigenvalues --   -0.50847  -0.50682  -0.50501  -0.49575  -0.48803
  Beta  occ. eigenvalues --   -0.48259  -0.48232  -0.48038  -0.47995  -0.47851
  Beta  occ. eigenvalues --   -0.47670  -0.47426  -0.47327  -0.47256  -0.46291
  Beta  occ. eigenvalues --   -0.45342  -0.44801  -0.44411  -0.44239  -0.43725
  Beta  occ. eigenvalues --   -0.43568  -0.43468  -0.43392  -0.43285  -0.43021
  Beta  occ. eigenvalues --   -0.42874  -0.42769  -0.42598  -0.42540  -0.42496
  Beta  occ. eigenvalues --   -0.42351  -0.42313  -0.41940  -0.41905  -0.41190
  Beta  occ. eigenvalues --   -0.40390  -0.40333  -0.40038  -0.39794  -0.39638
  Beta  occ. eigenvalues --   -0.39130  -0.38747  -0.38546  -0.38365  -0.38134
  Beta  occ. eigenvalues --   -0.37944  -0.37684  -0.37490  -0.37213  -0.36829
  Beta  occ. eigenvalues --   -0.36799  -0.36311  -0.35802  -0.35677  -0.35044
  Beta  occ. eigenvalues --   -0.34588  -0.34372  -0.33936  -0.33574  -0.32928
  Beta  occ. eigenvalues --   -0.32619  -0.32479  -0.32339  -0.31546  -0.31372
  Beta  occ. eigenvalues --   -0.31103  -0.30088  -0.29837  -0.27535  -0.27487
  Beta  occ. eigenvalues --   -0.26397  -0.26248  -0.25759  -0.24647  -0.24213
  Beta  occ. eigenvalues --   -0.23959  -0.23724  -0.23150  -0.22549  -0.21626
  Beta  occ. eigenvalues --   -0.18511  -0.17724  -0.17232
  Beta virt. eigenvalues --   -0.07766  -0.07095  -0.03334  -0.02783  -0.01028
  Beta virt. eigenvalues --   -0.00367   0.00174   0.00643   0.01209   0.01418
  Beta virt. eigenvalues --    0.01890   0.02041   0.02414   0.02630   0.02865
  Beta virt. eigenvalues --    0.03056   0.03573   0.03714   0.04362   0.05108
  Beta virt. eigenvalues --    0.05328   0.05481   0.05723   0.06298   0.06344
  Beta virt. eigenvalues --    0.06606   0.06825   0.07446   0.07532   0.07848
  Beta virt. eigenvalues --    0.08124   0.08358   0.08889   0.09306   0.09575
  Beta virt. eigenvalues --    0.09967   0.10024   0.10311   0.10487   0.10972
  Beta virt. eigenvalues --    0.11027   0.11487   0.11507   0.11981   0.12028
  Beta virt. eigenvalues --    0.12222   0.12365   0.12593   0.12672   0.13175
  Beta virt. eigenvalues --    0.13520   0.13754   0.14094   0.14116   0.14407
  Beta virt. eigenvalues --    0.14628   0.14816   0.14934   0.15130   0.15365
  Beta virt. eigenvalues --    0.15559   0.15637   0.15813   0.16027   0.16122
  Beta virt. eigenvalues --    0.16263   0.16447   0.16809   0.16869   0.17136
  Beta virt. eigenvalues --    0.17248   0.17583   0.17819   0.18019   0.18310
  Beta virt. eigenvalues --    0.18513   0.18665   0.18867   0.19178   0.19334
  Beta virt. eigenvalues --    0.19649   0.19720   0.19845   0.20046   0.20226
  Beta virt. eigenvalues --    0.20486   0.20603   0.20926   0.21116   0.21297
  Beta virt. eigenvalues --    0.21502   0.21596   0.21900   0.21973   0.22369
  Beta virt. eigenvalues --    0.22605   0.22762   0.23051   0.23424   0.23469
  Beta virt. eigenvalues --    0.23608   0.23817   0.24179   0.24502   0.24677
  Beta virt. eigenvalues --    0.24802   0.25017   0.25299   0.25404   0.25743
  Beta virt. eigenvalues --    0.25929   0.26216   0.26469   0.26545   0.26610
  Beta virt. eigenvalues --    0.27016   0.27138   0.27323   0.27466   0.27631
  Beta virt. eigenvalues --    0.27804   0.28133   0.28306   0.28768   0.28892
  Beta virt. eigenvalues --    0.29030   0.29333   0.29568   0.29675   0.29749
  Beta virt. eigenvalues --    0.30136   0.30313   0.30660   0.30879   0.31150
  Beta virt. eigenvalues --    0.31297   0.31488   0.31723   0.31844   0.32110
  Beta virt. eigenvalues --    0.32354   0.32752   0.32971   0.33376   0.33476
  Beta virt. eigenvalues --    0.33737   0.33903   0.33973   0.34373   0.34740
  Beta virt. eigenvalues --    0.34873   0.35064   0.35094   0.35351   0.35510
  Beta virt. eigenvalues --    0.35749   0.35989   0.36270   0.36390   0.36639
  Beta virt. eigenvalues --    0.36879   0.37260   0.37368   0.37689   0.37727
  Beta virt. eigenvalues --    0.38030   0.38176   0.38214   0.38421   0.38744
  Beta virt. eigenvalues --    0.38906   0.39238   0.39254   0.39618   0.39749
  Beta virt. eigenvalues --    0.39917   0.40089   0.40300   0.40530   0.40833
  Beta virt. eigenvalues --    0.40934   0.41081   0.41244   0.41438   0.41643
  Beta virt. eigenvalues --    0.41732   0.41861   0.42117   0.42235   0.42537
  Beta virt. eigenvalues --    0.42653   0.42784   0.42981   0.43076   0.43135
  Beta virt. eigenvalues --    0.43317   0.43398   0.43791   0.43953   0.44097
  Beta virt. eigenvalues --    0.44220   0.44457   0.44682   0.44885   0.44986
  Beta virt. eigenvalues --    0.45119   0.45393   0.45525   0.45613   0.45793
  Beta virt. eigenvalues --    0.45979   0.46126   0.46410   0.46524   0.46705
  Beta virt. eigenvalues --    0.46761   0.46922   0.47298   0.47491   0.47587
  Beta virt. eigenvalues --    0.47759   0.48007   0.48046   0.48124   0.48251
  Beta virt. eigenvalues --    0.48419   0.48482   0.48698   0.49033   0.49238
  Beta virt. eigenvalues --    0.49338   0.49631   0.49823   0.49947   0.50027
  Beta virt. eigenvalues --    0.50347   0.50619   0.50769   0.50965   0.51095
  Beta virt. eigenvalues --    0.51514   0.51538   0.51747   0.51834   0.52007
  Beta virt. eigenvalues --    0.52103   0.52424   0.52606   0.52977   0.53129
  Beta virt. eigenvalues --    0.53188   0.53566   0.53686   0.53930   0.53995
  Beta virt. eigenvalues --    0.54257   0.54497   0.54525   0.54594   0.54883
  Beta virt. eigenvalues --    0.55022   0.55368   0.55835   0.55901   0.56201
  Beta virt. eigenvalues --    0.56293   0.56420   0.56699   0.56863   0.56918
  Beta virt. eigenvalues --    0.57153   0.57418   0.57688   0.57885   0.57967
  Beta virt. eigenvalues --    0.58321   0.58428   0.58540   0.58737   0.58838
  Beta virt. eigenvalues --    0.58954   0.59235   0.59512   0.59596   0.59871
  Beta virt. eigenvalues --    0.60010   0.60261   0.60684   0.60943   0.60996
  Beta virt. eigenvalues --    0.61125   0.61365   0.61790   0.61962   0.62443
  Beta virt. eigenvalues --    0.62527   0.63101   0.63205   0.63285   0.63638
[...]
  1748. RY*(   3) H  77                  0.00003     2.20259   
  1749. RY*(   4) H  77                  0.00003     2.01042   
  1750. RY*(   5) H  77                  0.00000     2.97168   
  1751. RY*(   1) H  78                  0.00027     1.17192   
  1752. RY*(   2) H  78                  0.00009     1.93437   
  1753. RY*(   3) H  78                  0.00003     2.16980   
  1754. RY*(   4) H  78                  0.00002     2.39395   
  1755. RY*(   5) H  78                  0.00001     2.43025   
  1756. RY*(   1) H  79                  0.00038     0.96965   
  1757. RY*(   2) H  79                  0.00008     1.74471   
  1758. RY*(   3) H  79                  0.00004     2.16994   
  1759. RY*(   4) H  79                  0.00002     2.04150   
  1760. RY*(   5) H  79                  0.00000     2.98970   
  1761. RY*(   1) H  80                  0.00089     0.69215   
  1762. RY*(   2) H  80                  0.00012     2.25424   
  1763. RY*(   3) H  80                  0.00008     2.20083   
  1764. RY*(   4) H  80                  0.00004     2.67843   
  1765. RY*(   5) H  80                  0.00001     3.12010   
  1766. RY*(   1) H  81                  0.00036     1.19568   
  1767. RY*(   2) H  81                  0.00009     1.53638   
  1768. RY*(   3) H  81                  0.00007     1.94239   
  1769. RY*(   4) H  81                  0.00001     2.04952   
  1770. RY*(   5) H  81                  0.00002     2.93270   
  1771. RY*(   1) H  82                  0.00025     1.12868   
  1772. RY*(   2) H  82                  0.00011     1.49223   
  1773. RY*(   3) H  82                  0.00009     2.00787   
  1774. RY*(   4) H  82                  0.00001     2.81739   
  1775. RY*(   5) H  82                  0.00001     2.24496   
  1776. RY*(   1) H  83                  0.00040     1.48069   
  1777. RY*(   2) H  83                  0.00022     2.31176   
  1778. RY*(   3) H  83                  0.00013     2.26713   
  1779. RY*(   4) H  83                  0.00003     1.33703   
  1780. RY*(   5) H  83                  0.00001     3.13847   
  1781. RY*(   1) H  84                  0.00071     1.58479   
  1782. RY*(   2) H  84                  0.00015     2.26228   
  1783. RY*(   3) H  84                  0.00008     2.39974   
  1784. RY*(   4) H  84                  0.00004     1.17186   
  1785. RY*(   5) H  84                  0.00001     3.05840   
  1791. RY*(   1) H  86                  0.00049     0.85350   
  1792. RY*(   2) H  86                  0.00009     2.30626   
  1793. RY*(   3) H  86                  0.00008     2.18760   
  1794. RY*(   4) H  86                  0.00003     2.93500   
  1795. RY*(   5) H  86                  0.00000     3.14069   
  1796. RY*(   1) H  87                  0.00068     1.55340   
  1797. RY*(   2) H  87                  0.00009     1.72251   
  1798. RY*(   3) H  87                  0.00010     1.91630   
  1799. RY*(   4) H  87                  0.00005     2.48618   
  1800. RY*(   5) H  87                  0.00002     2.33360   
  1801. RY*(   1) H  88                  0.00023     1.03939   
  1802. RY*(   2) H  88                  0.00011     1.51152   
  1803. RY*(   3) H  88                  0.00006     1.99451   
  1804. RY*(   4) H  88                  0.00001     3.13177   
  1805. RY*(   5) H  88                  0.00001     2.03208   
  1806. RY*(   1) H  89                  0.00035     1.05143   
  1807. RY*(   2) H  89                  0.00008     1.96090   
  1808. RY*(   3) H  89                  0.00003     2.04937   
  1809. RY*(   4) H  89                  0.00003     2.19967   
  1810. RY*(   5) H  89                  0.00000     2.89929   
  1811. RY*(   1) H  90                  0.00028     1.18591   
  1812. RY*(   2) H  90                  0.00008     1.87211   
  1813. RY*(   3) H  90                  0.00003     2.22517   
  1814. RY*(   4) H  90                  0.00001     2.42958   
  1815. RY*(   5) H  90                  0.00001     2.37671   
  1816. RY*(   1) H  91                  0.00044     1.05434   
  1817. RY*(   2) H  91                  0.00008     1.68126   
  1818. RY*(   3) H  91                  0.00003     2.16236   
  1819. RY*(   4) H  91                  0.00002     2.06416   
  1820. RY*(   5) H  91                  0.00001     2.93149   
  1821. RY*(   1) H  92                  0.00044     1.75030   
  1822. RY*(   2) H  92                  0.00009     2.76737   
  1823. RY*(   3) H  92                  0.00006     2.07432   
  1824. RY*(   4) H  92                  0.00003     1.70238   
  1825. RY*(   5) H  92                  0.00000     3.09150   
  1826. RY*(   1) H  93                  0.00047     1.75670   
  1827. RY*(   2) H  93                  0.00008     2.79877   
  1828. RY*(   3) H  93                  0.00005     2.50163   
  1829. RY*(   4) H  93                  0.00004     1.42823   
  1830. RY*(   5) H  93                  0.00000     2.88135   
  1831. RY*(   1) H  94                  0.00053     1.20602   
  1832. RY*(   2) H  94                  0.00007     1.74733   
  1833. RY*(   3) H  94                  0.00007     2.54840   
  1834. RY*(   4) H  94                  0.00003     2.10647   
  1835. RY*(   5) H  94                  0.00001     3.10295   
  1836. RY*(   1) H  95                  0.00056     1.19489   
  1837. RY*(   2) H  95                  0.00007     1.58688   
  1838. RY*(   3) H  95                  0.00008     2.50957   
  1839. RY*(   4) H  95                  0.00004     2.32200   
  1840. RY*(   5) H  95                  0.00001     3.07916   
  1841. RY*(   1) H  96                  0.00041     1.09043   
  1842. RY*(   2) H  96                  0.00037     1.84590   
  1843. RY*(   3) H  96                  0.00020     2.03918   
  1844. RY*(   4) H  96                  0.00012     2.03064   
  1845. RY*(   5) H  96                  0.00000     3.33051   
  1846. RY*(   1) H  97                  0.00104     0.84165   
  1847. RY*(   2) H  97                  0.00030     2.12295   
  1848. RY*(   3) H  97                  0.00025     1.84802   
  1849. RY*(   4) H  97                  0.00010     2.15981   
  1850. RY*(   5) H  97                  0.00000     3.24979   
  1889. BD*(   1) C  13 - C  17          0.01057     0.58867   
  1890. BD*(   2) C  13 - C  17          0.19037     0.06394  1908(v),1967(v),1894(r)
                                                    522(g),630(g),1903(r)
  1891. BD*(   1) C  13 - C  44          0.01054     0.59554   
  1892. BD*(   1) C  13 - H  66          0.00723     0.45329   
  1893. BD*(   1) C  14 - C  20          0.01053     0.60877   
  1894. BD*(   2) C  14 - C  20          0.18088     0.06949  1908(v),1928(v),1898(r)
                                                    1890(r),548(g),708(g)
  1895. BD*(   1) C  14 - C  27          0.01074     0.58215   
  1896. BD*(   1) C  14 - H  67          0.00732     0.46491   
  1897. BD*(   1) C  15 - C  30          0.00959     0.60569   
  1898. BD*(   2) C  15 - C  30          0.17948     0.06977  1930(v),1945(v),1894(r)
                                                    1928(v),575(g),1939(r)
                                                    968(g)
  1899. BD*(   1) C  15 - C  34          0.01075     0.57262   
  1900. BD*(   1) C  15 - H  68          0.00772     0.48386   
  1901. BD*(   1) C  16 - C  37          0.00979     0.54566   
  1902. BD*(   1) C  16 - C  41          0.00989     0.55851   
  1903. BD*(   2) C  16 - C  41          0.18898     0.05843  1962(v),195(v),1967(v)
                                                    600(g),1254(g),1955(r)
                                                    1890(r),209(r)
  1904. BD*(   1) C  16 - H  69          0.00662     0.46564   
  1905. BD*(   1) C  17 - C  18          0.01644     0.51242   
  1906. BD*(   1) C  17 - N  51          0.01482     0.47883   
  1907. BD*(   1) C  18 - C  19          0.00994     0.62205   
  1908. BD*(   2) C  18 - C  19          0.11755     0.08300  1894(v),1890(v),1916(v)
                                                    1915(v),1913(v)
  1909. BD*(   1) C  18 - C  22          0.01304     0.39157   
  1910. BD*(   1) C  19 - C  20          0.01725     0.50489   
  1911. BD*(   1) C  19 - C  21          0.00914     0.40311   
  1912. BD*(   1) C  20 - N  51          0.01480     0.49753   
  1913. BD*(   1) C  21 - H  70          0.00383     0.41379   
  1914. BD*(   1) C  21 - H  71          0.00348     0.42375   
  1915. BD*(   1) C  21 - H  72          0.00501     0.41412   
  1916. BD*(   1) C  22 - C  23          0.00910     0.36120   
  1917. BD*(   1) C  22 - H  73          0.00695     0.40827   
  1918. BD*(   1) C  22 - H  74          0.00738     0.40497   
  1919. BD*(   1) C  23 - C  24          0.03221     0.34747   
  1920. BD*(   1) C  23 - H  75          0.00597     0.38362   
  1921. BD*(   1) C  23 - H  76          0.00493     0.39882   
  1922. BD*(   1) C  24 - O  25          0.03646     0.49166   
  1923. BD*(   1) C  24 - O  26          0.01591     0.55679   
  1924. BD*(   2) C  24 - O  26          0.11937     0.00686  1916(v),810(g),1920(v)
                                                    816(g),1923(g)
  1925. BD*(   1) O  25 - H  97          0.00753     0.37815   
  1926. BD*(   1) C  27 - C  28          0.01634     0.49519   
  1927. BD*(   1) C  27 - N  52          0.01431     0.49417   
  1928. BD*(   2) C  27 - N  52          0.32266     0.01376  207(v),1894(v),1930(v)
                                                    1898(v),208(v),888(g)
                                                    1538(g),548(v),1885(r)
                                                    1872(r)
  1929. BD*(   1) C  28 - C  29          0.01373     0.61749   
  1930. BD*(   2) C  28 - C  29          0.13034     0.07909  1898(v),1939(v),1928(v)
                                                    1940(v),1937(v),1938(v)
  1931. BD*(   1) C  28 - C  31          0.00849     0.37791   
  1932. BD*(   1) C  29 - C  30          0.02213     0.49615   
  1933. BD*(   1) C  29 - C  32          0.01170     0.58981   
  1934. BD*(   1) C  30 - N  52          0.01492     0.48098   
  1935. BD*(   1) C  31 - H  77          0.00320     0.42012   
  1936. BD*(   1) C  31 - H  78          0.00279     0.42105   
  1937. BD*(   1) C  31 - H  79          0.00434     0.41702   
  1938. BD*(   1) C  32 - C  33          0.00547     0.54547   
  1939. BD*(   2) C  32 - C  33          0.01821     0.06872   
  1940. BD*(   1) C  32 - H  80          0.01291     0.45350   
  1941. BD*(   1) C  33 - H  81          0.00401     0.45387   
  1942. BD*(   1) C  33 - H  82          0.00328     0.45458   
  1943. BD*(   1) C  34 - C  35          0.02288     0.48841   
  1944. BD*(   1) C  34 - N  53          0.01308     0.50072   
  1945. BD*(   2) C  34 - N  53          0.31292     0.02360  207(r),1898(v),1947(v)
                                                    195(v),1070(g),206(r),209(r)
                                                    1564(g),1967(r),575(v)
                                                    1871(r),1885(r)
  1946. BD*(   1) C  35 - C  36          0.02192     0.59677   
  1947. BD*(   2) C  35 - C  36          0.17228     0.06484  1955(v),1945(v),209(r)
                                                    195(v),1122(g),1200(v)
                                                    1099(g)
  1948. BD*(   1) C  35 - C  38          0.01654     0.37087   
  1949. BD*(   1) C  36 - C  37          0.01681     0.48711   
  1950. BD*(   1) C  36 - C  39          0.01238     0.57396   
  1951. BD*(   1) C  37 - N  53          0.01331     0.46237   
  1952. BD*(   1) C  38 - H  83          0.02260     0.40537   
  1953. BD*(   1) C  38 - H  84          0.02518     0.37190   
  1954. BD*(   1) C  39 - C  40          0.00382     0.55470   
  1955. BD*(   2) C  39 - C  40          0.05710     0.04417   
  1956. BD*(   1) C  39 - H  86          0.00797     0.46224   
  1957. BD*(   1) C  40 - H  87          0.00752     0.46180   
  1958. BD*(   1) C  40 - H  88          0.00381     0.46394   
  1959. BD*(   1) C  41 - C  42          0.01677     0.48933   
  1960. BD*(   1) C  41 - N  54          0.01406     0.48974   
  1961. BD*(   1) C  42 - C  43          0.01024     0.61780   
  1962. BD*(   2) C  42 - C  43          0.12532     0.08158  1903(v),1967(v),1971(v)
                                                    1970(v)
  1963. BD*(   1) C  42 - C  45          0.00913     0.39879   
  1964. BD*(   1) C  43 - C  44          0.01595     0.52653   
  1965. BD*(   1) C  43 - C  46          0.01191     0.39688   
  1966. BD*(   1) C  44 - N  54          0.01526     0.47906   
  1967. BD*(   2) C  44 - N  54          0.30530     0.02341  1890(v),1962(v),1903(v)
                                                    207(v),206(v),1330(g)
                                                    1590(g),1945(r),522(v)
                                                    1885(r),1871(r)
  1968. BD*(   1) C  45 - H  89          0.00305     0.41511   
  1969. BD*(   1) C  45 - H  90          0.00308     0.41776   
  1970. BD*(   1) C  45 - H  91          0.00504     0.41474   
  1971. BD*(   1) C  46 - C  47          0.00754     0.37168   
  1972. BD*(   1) C  46 - H  92          0.00585     0.41889   
  1973. BD*(   1) C  46 - H  93          0.00650     0.41884   
  1974. BD*(   1) C  47 - C  48          0.04102     0.34978   
  1975. BD*(   1) C  47 - H  94          0.00644     0.38810   
  1976. BD*(   1) C  47 - H  95          0.00585     0.38047   
  1977. BD*(   1) C  48 - O  49          0.03489     0.49770   
  1978. BD*(   1) C  48 - O  50          0.03019     0.50581   
  1979. BD*(   2) C  48 - O  50          0.08865     0.04570   
  1980. BD*(   1) O  49 - H  96          0.00718     0.36667   
  1981. BD*(   1) N  51 -Fe  55          0.06361     0.30284   
  1982. BD*(   1) N  52 -Fe  55          0.03563     0.40527   
  1983. BD*(   1) N  54 -Fe  55          0.03692     0.39682   
       -------------------------------
              Total Lewis  154.51360  ( 97.1152%)
        Valence non-Lewis    4.26147  (  2.6784%)
        Rydberg non-Lewis    0.32833  (  0.2064%)
       -------------------------------
            Total unit  3  159.10340  (100.0000%)
           Charge unit  3    1.39660

 Molecular unit  4  (H)
   209. LP*(   1) H  85                  0.28631     0.05693  1953(r),1947(r),1786(g)
                                                    1952(r),1948(r),1955(r)
                                                    1787(g),1943(r),1176(r)
                                                    1945(r),1789(g),1172(r)
                                                    1790(g),1174(r),1957(r)
                                                    1173(r),1181(r),1189(r)
                                                    1186(r),1958(r),1177(r)
                                                    1180(r),1175(r),1949(r)
                                                    1184(r),1190(r),1187(r)
                                                    1195(r),1122(r),1956(r)
                                                    1903(r),1900(r),1776(r)
                                                    1120(r),1193(r),1192(r)
                                                    1898(r),1102(r),1098(r)
  1786. RY*(   1) H  85                  0.00199     0.98245   
  1787. RY*(   2) H  85                  0.00023     2.02999   
  1788. RY*(   3) H  85                  0.00008     2.53941   
  1789. RY*(   4) H  85                  0.00008     1.95908   
  1790. RY*(   5) H  85                  0.00001     3.13233   
       -------------------------------
              Total Lewis    0.00000  (  0.0000%)
        Valence non-Lewis    0.28631  ( 99.1751%)
        Rydberg non-Lewis    0.00238  (  0.8249%)
       -------------------------------
            Total unit  4    0.28869  (100.0000%)
           Charge unit  4    0.21131
 1\1\GINC-NODE862\SP\UPBE1PBE\def2TZVP\C42H44Fe1N8O4(5)\KLEICH\15-Oct-2
 022\0\\# PBE1PBE/def2TZVP empiricaldispersion=GD3BJ int=(grid=ultrafin
 e) geom=check pop=nbo\\1es1_II_Q\\0,5\C,0,10.389,7.264,-0.33\C,0,10.25
 9,5.837,-0.756\N,0,9.134,5.066,-0.552\C,0,11.151,5.032,-1.386\C,0,9.37
 7,3.851,-1.051\N,0,10.59,3.786,-1.567\C,0,15.294,-1.376,-4.837\C,0,14.
 155,-0.842,-4.034\N,0,13.153,-1.622,-3.506\C,0,13.828,0.437,-3.727\C,0
 ,12.272,-0.809,-2.914\N,0,12.643,0.45,-3.024\C,0,10.604,2.74,-5.477\C,
 0,14.465,4.118,-2.957\C,0,13.023,1.409,0.762\C,0,8.949,0.248,-1.643\C,
 0,11.847,3.243,-5.138\C,0,12.689,3.98,-6.045\C,0,13.741,4.42,-5.313\C,
 0,13.553,3.927,-3.964\C,0,14.926,5.206,-5.829\C,0,12.516,4.197,-7.544\
 C,0,12.704,2.938,-8.38\C,0,14.03,2.26,-8.115\O,0,15.081,2.905,-8.307\O
 ,0,14.021,1.08,-7.709\C,0,14.378,3.519,-1.705\C,0,15.454,3.576,-0.732\
 C,0,15.067,2.779,0.297\C,0,13.74,2.28,-0.026\C,0,16.767,4.356,-0.901\C
 ,0,15.891,2.344,1.32\C,0,15.811,2.826,2.613\C,0,11.803,0.824,0.411\C,0
 ,11.068,-0.079,1.279\C,0,9.894,-0.389,0.647\C,0,9.929,0.33,-0.627\C,0,
 11.49,-0.455,2.707\C,0,8.843,-1.203,1.073\C,0,8.724,-1.87,2.298\C,0,9.
 038,0.896,-2.887\C,0,8.005,0.907,-3.919\C,0,8.492,1.577,-4.993\C,0,9.8
 01,2.015,-4.623\C,0,6.58,0.399,-3.808\C,0,7.791,1.784,-6.337\C,0,7.888
 ,0.521,-7.174\C,0,6.983,0.554,-8.391\O,0,6.894,-0.478,-9.09\O,0,6.357,
 1.606,-8.646\N,0,12.403,3.173,-3.862\N,0,13.341,2.706,-1.291\N,0,11.11
 4,1.069,-0.755\N,0,10.119,1.648,-3.315\Fe,0,11.722,2.174,-2.311\H,0,11
 .39301548,7.59530484,-0.49459044\H,0,9.71568828,7.86922777,-0.90030753
 \H,0,10.15134638,7.34887162,0.70981612\H,0,12.13475414,5.31903192,-1.6
 937994\H,0,8.68088072,3.03856669,-1.03456622\H,0,16.12537355,-0.706157
 57,-4.76608356\H,0,15.57677429,-2.33661723,-4.45996785\H,0,14.99647121
 ,-1.4680826,-5.86066861\H,0,14.40076373,1.3017994,-3.98960941\H,0,11.3
 8334878,-1.13758422,-2.41677629\H,0,10.24220082,2.92579471,-6.46668767
 \H,0,15.29388273,4.76755728,-3.14654883\H,0,13.43167283,1.15988615,1.7
 1898945\H,0,8.08093901,-0.34767135,-1.45183054\H,0,15.83157875,4.76053
 392,-5.47349037\H,0,14.92068971,5.19801828,-6.89895705\H,0,14.86393187
 ,6.21541865,-5.47954108\H,0,13.30389399,4.85992132,-7.83496116\H,0,11.
 49510642,4.48705096,-7.68018638\H,0,12.7334206,3.26008784,-9.39994796\
 H,0,11.94937887,2.25147381,-8.05731015\H,0,17.57858644,3.776441,-0.513
 2645\H,0,16.93363033,4.55312077,-1.93940153\H,0,16.70312161,5.28160954
 ,-0.36802109\H,0,16.62586767,1.59821028,1.09939356\H,0,15.08553266,3.5
 720822,2.86191462\H,0,16.47453864,2.4530382,3.36500796\H,0,10.92579482
 ,-0.809282,3.54429134\H,0,10.90915833,0.41913513,2.91535244\H,0,11.212
 62451,-1.42145384,2.34103579\H,0,8.03498904,-1.33202301,0.38352821\H,0
 ,9.49755029,-1.78263903,3.03208992\H,0,7.85949217,-2.46718181,2.500237
 71\H,0,6.21394285,0.14807279,-4.78162092\H,0,6.55871955,-0.46999403,-3
 .1840637\H,0,5.96216789,1.16058706,-3.38001795\H,0,8.34176467,2.539707
 43,-6.85706207\H,0,6.75309308,1.93072391,-6.12224124\H,0,7.52444511,-0
 .27299895,-6.55570112\H,0,8.88931937,0.49072568,-7.54995609\H,0,7.6890
 8665,-0.92343443,-9.39170413\H,0,15.93354949,2.48202666,-8.18109166\H,
 0,8.28782269,5.36325904,-0.10970934\H,0,13.09388415,-2.61900255,-3.555
 91233\\Version=AM64L-G16RevA.03\State=5-A\HF=-3627.4613949\S2=6.076716
 \S2-1=0.\S2A=6.001869\RMSD=1.080e-09\Dipole=0.9388383,0.2197018,-0.708
 1257\Quadrupole=-7.1294824,19.8362665,-12.7067841,-3.2872902,-35.22117
 58,21.9885186\PG=C01 [X(C42H44Fe1N8O4)]\\@


 A HARD FALL SHOULD MEAN A HIGH BOUNCE 
 IF ONE IS MADE OF THE RIGHT MATERIAL.

                -- THE CHEMIST ANALYST, MARCH 1950
 Job cpu time:       9 days 16 hours 34 minutes 23.2 seconds.
 Elapsed time:       2 days 10 hours 38 minutes 55.7 seconds.
 File lengths (MBytes):  RWF=   3611 Int=      0 D2E=      0 Chk=    317 Scr=      1
 Normal termination of Gaussian 16 at Sat Oct 15 00:07:09 2022.
