 Entering Gaussian System, Link 0=g16
 Input=/net/homes/chemie/zhartovska/work/BioModel/Konrad/1f1c/1f1c12/1f1c16/1f1c16.com
 Output=/net/homes/chemie/zhartovska/work/BioModel/Konrad/1f1c/1f1c12/1f1c16/1f1c16.log
 Initial command:
 /afs/math/software/gaussian/g16.A03/g16/l1.exe "/scratch/zhartovska_gaussian.i7dGrGe/Gau-7548.inp" -scrdir="/scratch/zhartovska_gaussian.i7dGrGe/"
 Entering Link 1 = /afs/math/software/gaussian/g16.A03/g16/l1.exe PID=      7549.
  
 Copyright (c) 1988,1990,1992,1993,1995,1998,2003,2009,2016,
            Gaussian, Inc.  All Rights Reserved.
  
 This is part of the Gaussian(R) 16 program.  It is based on
 the Gaussian(R) 09 system (copyright 2009, Gaussian, Inc.),
 the Gaussian(R) 03 system (copyright 2003, Gaussian, Inc.),
 the Gaussian(R) 98 system (copyright 1998, Gaussian, Inc.),
 the Gaussian(R) 94 system (copyright 1995, Gaussian, Inc.),
 the Gaussian 92(TM) system (copyright 1992, Gaussian, Inc.),
 the Gaussian 90(TM) system (copyright 1990, Gaussian, Inc.),
 the Gaussian 88(TM) system (copyright 1988, Gaussian, Inc.),
 the Gaussian 86(TM) system (copyright 1986, Carnegie Mellon
 University), and the Gaussian 82(TM) system (copyright 1983,
 Carnegie Mellon University). Gaussian is a federally registered
 trademark of Gaussian, Inc.
  
 This software contains proprietary and confidential information,
 including trade secrets, belonging to Gaussian, Inc.
  
 This software is provided under written license and may be
 used, copied, transmitted, or stored only in accord with that
 written license.
  
 The following legend is applicable only to US Government
 contracts under FAR:
  
                    RESTRICTED RIGHTS LEGEND
  
 Use, reproduction and disclosure by the US Government is
 subject to restrictions as set forth in subparagraphs (a)
 and (c) of the Commercial Computer Software - Restricted
 Rights clause in FAR 52.227-19.
  
 Gaussian, Inc.
 340 Quinnipiac St., Bldg. 40, Wallingford CT 06492
  
  
 ---------------------------------------------------------------
 Warning -- This program may not be used in any manner that
 competes with the business of Gaussian, Inc. or will provide
 assistance to any competitor of Gaussian, Inc.  The licensee
 of this program is prohibited from giving any competitor of
 Gaussian, Inc. access to this program.  By using this program,
 the user acknowledges that Gaussian, Inc. is engaged in the
 business of creating and licensing software in the field of
 computational chemistry and represents and warrants to the
 licensee that it is not a competitor of Gaussian, Inc. and that
 it will not use this program in any manner prohibited above.
 ---------------------------------------------------------------
  

 Cite this work as:
 Gaussian 16, Revision A.03,
 M. J. Frisch, G. W. Trucks, H. B. Schlegel, G. E. Scuseria, 
 M. A. Robb, J. R. Cheeseman, G. Scalmani, V. Barone, 
 G. A. Petersson, H. Nakatsuji, X. Li, M. Caricato, A. V. Marenich, 
 J. Bloino, B. G. Janesko, R. Gomperts, B. Mennucci, H. P. Hratchian, 
 J. V. Ortiz, A. F. Izmaylov, J. L. Sonnenberg, D. Williams-Young, 
 F. Ding, F. Lipparini, F. Egidi, J. Goings, B. Peng, A. Petrone, 
 T. Henderson, D. Ranasinghe, V. G. Zakrzewski, J. Gao, N. Rega, 
 G. Zheng, W. Liang, M. Hada, M. Ehara, K. Toyota, R. Fukuda, 
 J. Hasegawa, M. Ishida, T. Nakajima, Y. Honda, O. Kitao, H. Nakai, 
 T. Vreven, K. Throssell, J. A. Montgomery, Jr., J. E. Peralta, 
 F. Ogliaro, M. J. Bearpark, J. J. Heyd, E. N. Brothers, K. N. Kudin, 
 V. N. Staroverov, T. A. Keith, R. Kobayashi, J. Normand, 
 K. Raghavachari, A. P. Rendell, J. C. Burant, S. S. Iyengar, 
 J. Tomasi, M. Cossi, J. M. Millam, M. Klene, C. Adamo, R. Cammi, 
 J. W. Ochterski, R. L. Martin, K. Morokuma, O. Farkas, 
 J. B. Foresman, and D. J. Fox, Gaussian, Inc., Wallingford CT, 2016.
 
 ******************************************
 Gaussian 16:  ES64L-G16RevA.03 25-Dec-2016
                 8-Apr-2023 
 ******************************************
 %nprocs=12
 Will use up to   12 processors via shared memory.
 %mem=16GB
 %oldchk=1f1c_III_D.chk
 %chk=1f1c_III_H.chk
 Copying data from "1f1c_III_D.chk" to current chk file "1f1c_III_H.chk"
 IOpt=  2 FromEx=T IUOpen= 4 IOptOp= 5 NList=   0 IFRang= 0 IUIn= 4 IUOut= 2.
 ----------------------------------------------------------------------
 # PBE1PBE/def2TZVP empiricaldispersion=GD3BJ scf=maxcycle=999 geom=che
 ck pop=nbo
 ----------------------------------------------------------------------
 1/29=2,38=1,172=1/1;
 2/12=2,40=1/2;
 3/5=44,7=101,11=2,14=-4,25=1,30=1,74=-13,124=41/1,2,3;
 4//1;
 5/5=2,7=999,38=5/2;
 6/7=2,8=2,9=2,10=2,28=1,40=1/1,7;
 99/5=1,9=1/99;
 ----------
 1f1c_III_H
 ----------
 Structure from the checkpoint file:  "1f1c_III_H.chk"
 Charge =  1 Multiplicity = 6
 Z-Matrix found in chk file.
 C,0,11.882,8.838,17.771
 C,0,10.399,8.933,17.620001
 N,0,9.677,8.072,16.820999
 C,0,9.508,9.836,18.097
 C,0,8.41,8.447,16.806999
 N,0,8.276,9.52,17.573999
 C,0,1.847,12.055,21.094999
 C,0,3.134,12.163,20.323
 N,0,3.846,13.341,20.215
 C,0,3.835,11.242,19.618999
 C,0,4.926,13.137,19.476
 N,0,4.951,11.869,19.099001
 Fe,0,6.67,10.706,18.398001
 C,0,4.774,9.681,15.772
 C,0,8.04,13.22,16.379999
 C,0,8.458,11.964,21.009001
 C,0,5.729,8.005,20.201
 N,0,6.402,11.35,16.532
 C,0,5.566,10.816,15.589
 C,0,5.733,11.515,14.343
 C,0,6.629,12.488,14.508
 C,0,7.079,12.361,15.849
 C,0,6.96,13.641,13.574
 C,0,5.003,11.243,13.071
 C,0,5.772,10.159,12.361
 C,0,5.258,9.935,10.968
 O,0,4.258,10.58,10.599
 O,0,5.85,9.116,10.244
 N,0,7.929,12.246,18.652
 C,0,8.415,13.173,17.700001
 C,0,9.241,14.167,18.299999
 C,0,9.25,13.897,19.621
 C,0,8.501,12.678,19.829
 C,0,9.99,15.298,17.615
 C,0,9.85,14.69,20.599001
 C,0,9.419,16.006001,20.853001
 N,0,7.04,10.093,20.187
 C,0,7.82,10.721,21.143999
 C,0,7.872,9.963,22.348
 C,0,7.064,8.877,22.173
 C,0,6.584,8.945,20.790001
 C,0,8.729,10.263,23.576
 C,0,6.886,7.832,23.117001
 C,0,6.353,8.081,24.417999
 N,0,5.453,9.201,18.083
 C,0,5.133,8.184,18.954
 C,0,4.189,7.286,18.382
 C,0,3.924,7.757,17.146999
 C,0,4.73,8.931,16.945
 C,0,3.746,5.925,18.966
 C,0,2.888,7.211,16.159
 C,0,1.501,7.813,16.379
 C,0,0.478,7.338,15.351
 O,0,0.599,7.685,14.162
 O,0,-0.455,6.605,15.734
 H,0,1.99453847,12.42540573,22.08794008
 H,0,1.0893189,12.63247005,20.60781557
 H,0,1.54192868,11.03032305,21.13822678
 H,0,3.57155472,10.21312682,19.48893533
 H,0,3.58652074,14.21289656,20.63029135
 H,0,5.65792574,13.87608143,19.22511487
 H,0,7.62272352,7.96460959,16.26626317
 H,0,9.7239342,10.64748657,18.76014551
 H,0,10.05321831,7.28678813,16.32916356
 H,0,12.34045738,9.7041569,17.34147812
 H,0,12.13177001,8.78034622,18.80984117
 H,0,12.2361137,7.96144401,17.26984824
 H,0,6.80358323,10.43874735,12.3112259
 H,0,5.68379594,9.24835231,12.91583406
 H,0,4.97348346,12.12680636,12.46857566
 H,0,4.00868579,10.90916721,13.2826481
 H,0,4.36860184,11.40772614,10.12546365
 H,0,1.47311488,7.79619125,13.78100172
 H,0,1.57556199,8.87894798,16.32336355
 H,0,1.15892417,7.54169184,17.35587052
 H,0,3.2083135,7.43434849,15.16279986
 H,0,2.82656578,6.14891555,16.27346599
 H,0,4.15870291,9.36562958,14.95539056
 H,0,8.50103382,13.94041126,15.73707176
 H,0,7.89034695,13.44619808,13.08266837
 H,0,6.18495965,13.74180143,12.84321171
 H,0,7.0376533,14.5464892,14.1387648
 H,0,4.48079656,5.57980095,19.66300189
 H,0,2.80677973,6.03996044,19.46554918
 H,0,3.64378814,5.21318215,18.17368183
 H,0,5.52253433,7.10197729,20.73655756
 H,0,8.9379634,12.3813068,21.86946028
 H,0,10.92595673,14.9338287,17.2458601
 H,0,9.40562484,15.67045267,16.79971803
 H,0,10.16579079,16.08605794,18.31711273
 H,0,9.65227789,10.70670878,23.26683911
 H,0,8.20600659,10.93939969,24.21932057
 H,0,8.92914224,9.35307592,24.10219506
 H,0,8.7271232,16.00343919,21.66921172
 H,0,10.26228496,16.61565928,21.10217415
 H,0,8.9400292,16.39907335,19.98065869
 H,0,10.65940565,14.28747474,21.17148323
 H,0,6.78748193,8.973911,24.81654059
 H,0,5.29164065,8.19953513,24.35192511
 H,0,6.58045187,7.2561523,25.06048785
 H,0,7.1579653,6.83299064,22.84697292
 Recover connectivity data from disk.
 Stoichiometry    C42H46FeN8O4(1+,6)
 Framework group  C1[X(C42H46FeN8O4)]
 Deg. of freedom   297
 Full point group                 C1      NOp   1
 Largest Abelian subgroup         C1      NOp   1
 Largest concise Abelian subgroup C1      NOp   1
                         Standard orientation:                         
 ---------------------------------------------------------------------
 Center     Atomic      Atomic             Coordinates (Angstroms)
 Number     Number       Type             X           Y           Z
 ---------------------------------------------------------------------
      1          6           0        2.551255   -2.130370    4.876773
      2          6           0        1.650938   -1.485267    3.874582
      3          7           0        0.364289   -1.092193    4.176306
      4          6           0        1.816836   -1.238250    2.552357
      5          6           0       -0.223007   -0.640455    3.082174
      6          7           0        0.636336   -0.718250    2.075670
      7          6           0        0.636726    3.418152   -4.485266
      8          6           0        0.779179    2.192340   -3.624389
      9          7           0        1.458397    1.062916   -4.035916
     10          6           0        0.327648    1.917668   -2.377018
     11          6           0        1.414251    0.148794   -3.078539
     12          7           0        0.735400    0.637792   -2.053542
     13         26           0        0.768103   -0.039259    0.029596
     14          6           0       -2.628643   -0.047628   -0.028444
     15          6           0        0.751890   -3.469574   -0.678998
     16          6           0        4.167631   -0.117307   -0.154649
     17          6           0        0.794094    3.137647    1.186437
     18          7           0       -0.619882   -1.417130   -0.349205
     19          6           0       -1.977192   -1.241080   -0.345085
     20          6           0       -2.629237   -2.501911   -0.577782
     21          6           0       -1.702544   -3.443020   -0.757571
     22          6           0       -0.457756   -2.784941   -0.572247
     23          6           0       -1.879632   -4.862494   -1.272410
     24          6           0       -4.100290   -2.736725   -0.653503
     25          6           0       -4.570678   -2.957052    0.760961
     26          6           0       -6.001751   -3.409627    0.806000
     27          8           0       -6.632078   -3.475479   -0.266631
     28          8           0       -6.496317   -3.697389    1.909630
     29          7           0        2.141990   -1.448090   -0.356183
     30          6           0        1.964567   -2.830640   -0.598880
     31          6           0        3.196240   -3.478808   -0.904116
     32          6           0        4.138460   -2.514393   -0.891824
     33          6           0        3.503401   -1.279904   -0.488136
     34          6           0        3.434235   -4.955848   -1.170757
     35          6           0        5.475266   -2.692701   -1.247479
     36          6           0        5.851373   -3.068074   -2.551233
     37          7           0        2.162224    1.218732    0.462113
     38          6           0        3.529361    1.026803    0.349277
     39          6           0        4.250373    2.178849    0.773326
     40          6           0        3.328497    3.132189    1.096083
     41          6           0        2.016096    2.498478    0.942057
     42          6           0        5.765875    2.302459    0.916179
     43          6           0        3.631381    4.413453    1.626621
     44          6           0        4.424838    5.354822    0.903478
     45          7           0       -0.618909    1.289306    0.425140
     46          6           0       -0.441577    2.585368    0.854214
     47          6           0       -1.685963    3.258268    1.007297
     48          6           0       -2.638506    2.367261    0.666619
     49          6           0       -1.981758    1.132045    0.332494
     50          6           0       -1.906983    4.642727    1.658487
     51          6           0       -4.144146    2.629521    0.557890
     52          6           0       -4.544383    3.157954   -0.818751
     53          6           0       -6.051420    3.347530   -0.966532
     54          8           0       -6.795814    2.350228   -0.972750
     55          8           0       -6.498346    4.506635   -1.072354
     56          1           0        1.603364    3.735732   -4.816405
     57          1           0        0.026485    3.189106   -5.333820
     58          1           0        0.179028    4.201319   -3.917761
     59          1           0       -0.242692    2.574373   -1.753840
     60          1           0        1.913095    0.952268   -4.919662
     61          1           0        1.855079   -0.825013   -3.126176
     62          1           0       -1.225882   -0.272821    3.019025
     63          1           0        2.705084   -1.415627    1.982748
     64          1           0       -0.058236   -1.141275    5.081328
     65          1           0        2.743954   -3.141456    4.584418
     66          1           0        3.474222   -1.591308    4.926202
     67          1           0        2.080526   -2.120463    5.837614
     68          1           0       -3.954962   -3.701333    1.221221
     69          1           0       -4.477342   -2.041084    1.306113
     70          1           0       -4.303521   -3.603481   -1.247078
     71          1           0       -4.587347   -1.881444   -1.073229
     72          1           0       -6.676400   -4.305375   -0.747158
     73          1           0       -6.576146    1.583957   -0.437798
     74          1           0       -4.209686    2.466515   -1.563593
     75          1           0       -4.061545    4.099109   -0.979981
     76          1           0       -4.669041    1.715885    0.744046
     77          1           0       -4.424881    3.347902    1.299521
     78          1           0       -3.697960   -0.038443   -0.065547
     79          1           0        0.734743   -4.528947   -0.828445
     80          1           0       -1.811233   -5.549515   -0.454961
     81          1           0       -2.838613   -4.956098   -1.737697
     82          1           0       -1.113685   -5.080902   -1.986918
     83          1           0       -1.073467    4.878602    2.286590
     84          1           0       -1.999120    5.385789    0.894112
     85          1           0       -2.801349    4.622083    2.245500
     86          1           0        0.810049    4.100578    1.652708
     87          1           0        5.228875   -0.086174   -0.287660
     88          1           0        3.546776   -5.472592   -0.240591
     89          1           0        2.600277   -5.360727   -1.705068
     90          1           0        4.323224   -5.074211   -1.754357
     91          1           0        6.173205    1.361528    1.222172
     92          1           0        6.190772    2.586260   -0.023938
     93          1           0        5.995433    3.046192    1.650390
     94          1           0        6.102901   -2.194364   -3.115382
     95          1           0        6.699486   -3.718773   -2.504375
     96          1           0        5.037576   -3.576371   -3.024803
     97          1           0        6.235197   -2.540144   -0.509827
     98          1           0        5.253860    4.850600    0.452498
     99          1           0        3.828977    5.813080    0.141999
    100          1           0        4.786287    6.106240    1.574020
    101          1           0        3.255811    4.680426    2.592319
 ---------------------------------------------------------------------
 Rotational constants (GHZ):           0.0602409           0.0427337           0.0337575
 Standard basis: def2TZVP (5D, 7F)
 There are  2272 symmetry adapted cartesian basis functions of A   symmetry.
 There are  1995 symmetry adapted basis functions of A   symmetry.
  1995 basis functions,  3224 primitive gaussians,  2272 cartesian basis functions
   208 alpha electrons      203 beta electrons
       nuclear repulsion energy      8943.5782577488 Hartrees.
 NAtoms=  101 NActive=  101 NUniq=  101 SFac= 1.00D+00 NAtFMM=   60 NAOKFM=T Big=T
 Integral buffers will be    131072 words long.
 Raffenetti 2 integral format.
 Two-electron integral symmetry is turned on.
 Nuclear repulsion after empirical dispersion term =     8943.4346939353 Hartrees.
 One-electron integrals computed using PRISM.
   1 Symmetry operations used in ECPInt.
 ECPInt:  NShTT=  314821 NPrTT=  970913 LenC2=  228805 LenP2D=  454572.
 LDataN:  DoStor=T MaxTD1= 6 Len=  172
 NBasis=  1995 RedAO= T EigKep=  3.19D-06  NBF=  1995
 NBsUse=  1995 1.00D-06 EigRej= -1.00D+00 NBFU=  1995
 ExpMin= 4.20D-02 ExpMax= 3.01D+05 ExpMxC= 2.91D+03 IAcc=3 IRadAn=         5 AccDes= 0.00D+00
 Harris functional with IExCor= 1009 and IRadAn=       5 diagonalized for initial guess.
 HarFok:  IExCor= 1009 AccDes= 0.00D+00 IRadAn=         5 IDoV= 1 UseB2=F ITyADJ=14
 ICtDFT=  3500011 ScaDFX=  1.000000  1.000000  1.000000  1.000000
 FoFCou: FMM=F IPFlag=           0 FMFlag=      100000 FMFlg1=        2001
         NFxFlg=           0 DoJE=T BraDBF=F KetDBF=T FulRan=T
         wScrn=  0.000000 ICntrl=       500 IOpCl=  0 I1Cent=   200000004 NGrid=           0
         NMat0=    1 NMatS0=      1 NMatT0=    0 NMatD0=    1 NMtDS0=    0 NMtDT0=    0
 Petite list used in FoFCou.
 Initial guess <Sx>= 0.0000 <Sy>= 0.0000 <Sz>= 2.5000 <S**2>= 8.7500 S= 2.5000
 Requested convergence on RMS density matrix=1.00D-08 within 999 cycles.
 Requested convergence on MAX density matrix=1.00D-06.
 Requested convergence on             energy=1.00D-06.
 No special actions if energy rises.
 EnCoef did   100 forward-backward iterations
 EnCoef did   100 forward-backward iterations
 EnCoef did   100 forward-backward iterations
 EnCoef did     1 forward-backward iterations
 EnCoef did    16 forward-backward iterations
 EnCoef did     3 forward-backward iterations
 EnCoef did     3 forward-backward iterations
 Restarting incremental Fock formation.
 Rare condition: small coef for last iteration:  0.000D+00
 Rare condition: small coef for last iteration:  0.000D+00
 Restarting incremental Fock formation.
 SCF Done:  E(UPBE1PBE) =  -3628.65344177     A.U. after   54 cycles
            NFock= 54  Conv=0.33D-08     -V/T= 2.0030
 <Sx>= 0.0000 <Sy>= 0.0000 <Sz>= 2.5000 <S**2>= 8.8203 S= 2.5117
 <L.S>= 0.000000000000E+00
 Annihilation of the first spin contaminant:
 S**2 before annihilation     8.8203,   after     8.7513
 Hyperfine terms turned off by default for NAtoms > 100.

 **********************************************************************

            Population analysis using the SCF density.

 **********************************************************************

 Orbital symmetries:
 Alpha Orbitals:
       Occupied  (A) (A) (A) (A) (A) (A) (A) (A) (A) (A) (A) (A)
                 (A) (A) (A) (A) (A) (A) (A) (A) (A) (A) (A) (A)
                 (A) (A) (A) (A) (A) (A) (A) (A) (A) (A) (A) (A)
                 (A) (A) (A) (A) (A) (A) (A) (A) (A) (A) (A) (A)
                 (A) (A) (A) (A) (A) (A) (A) (A) (A) (A) (A) (A)
                 (A) (A) (A) (A) (A) (A) (A) (A) (A) (A) (A) (A)
                 (A) (A) (A) (A) (A) (A) (A) (A) (A) (A) (A) (A)
                 (A) (A) (A) (A) (A) (A) (A) (A) (A) (A) (A) (A)
                 (A) (A) (A) (A) (A) (A) (A) (A) (A) (A) (A) (A)
                 (A) (A) (A) (A) (A) (A) (A) (A) (A) (A) (A) (A)
                 (A) (A) (A) (A) (A) (A) (A) (A) (A) (A) (A) (A)
                 (A) (A) (A) (A) (A) (A) (A) (A) (A) (A) (A) (A)
                 (A) (A) (A) (A) (A) (A) (A) (A) (A) (A) (A) (A)
                 (A) (A) (A) (A) (A) (A) (A) (A) (A) (A) (A) (A)
                 (A) (A) (A) (A) (A) (A) (A) (A) (A) (A) (A) (A)
                 (A) (A) (A) (A) (A) (A) (A) (A) (A) (A) (A) (A)
                 (A) (A) (A) (A) (A) (A) (A) (A) (A) (A) (A) (A)
                 (A) (A) (A) (A)
       Virtual   (A) (A) (A) (A) (A) (A) (A) (A) (A) (A) (A) (A)
                 (A) (A) (A) (A) (A) (A) (A) (A) (A) (A) (A) (A)
                 (A) (A) (A) (A) (A) (A) (A) (A) (A) (A) (A) (A)
                 (A) (A) (A) (A) (A) (A) (A) (A) (A) (A) (A) (A)
                 (A) (A) (A) (A) (A) (A) (A) (A) (A) (A) (A) (A)
                 (A) (A) (A) (A) (A) (A) (A) (A) (A) (A) (A) (A)
                 (A) (A) (A) (A) (A) (A) (A) (A) (A) (A) (A) (A)
                 (A) (A) (A) (A) (A) (A) (A) (A) (A) (A) (A) (A)
                 (A) (A) (A) (A) (A) (A) (A) (A) (A) (A) (A) (A)
                 (A) (A) (A) (A) (A) (A) (A) (A) (A) (A) (A) (A)
                 (A) (A) (A) (A) (A) (A) (A) (A) (A) (A) (A) (A)
                 (A) (A) (A) (A) (A) (A) (A) (A) (A) (A) (A) (A)
                 (A) (A) (A) (A) (A) (A) (A) (A) (A) (A) (A) (A)
                 (A) (A) (A) (A) (A) (A) (A) (A) (A) (A) (A) (A)
                 (A) (A) (A) (A) (A) (A) (A) (A) (A) (A) (A) (A)
                 (A) (A) (A) (A) (A) (A) (A) (A) (A) (A) (A) (A)
                 (A) (A) (A) (A) (A) (A) (A) (A) (A) (A) (A) (A)
                 (A) (A) (A) (A) (A) (A) (A) (A) (A) (A) (A) (A)
                 (A) (A) (A) (A) (A) (A) (A) (A) (A) (A) (A) (A)
                 (A) (A) (A) (A) (A) (A) (A) (A) (A) (A) (A) (A)
                 (A) (A) (A) (A) (A) (A) (A) (A) (A) (A) (A) (A)
                 (A) (A) (A) (A) (A) (A) (A) (A) (A) (A) (A) (A)
                 (A) (A) (A) (A) (A) (A) (A) (A) (A) (A) (A) (A)
                 (A) (A) (A) (A) (A) (A) (A) (A) (A) (A) (A) (A)
                 (A) (A) (A) (A) (A) (A) (A) (A) (A) (A) (A) (A)
                 (A) (A) (A) (A) (A) (A) (A) (A) (A) (A) (A) (A)
                 (A) (A) (A) (A) (A) (A) (A) (A) (A) (A) (A) (A)
                 (A) (A) (A) (A) (A) (A) (A) (A) (A) (A) (A) (A)
                 (A) (A) (A) (A) (A) (A) (A) (A) (A) (A) (A) (A)
                 (A) (A) (A) (A) (A) (A) (A) (A) (A) (A) (A) (A)
                 (A) (A) (A) (A) (A) (A) (A) (A) (A) (A) (A) (A)
                 (A) (A) (A) (A) (A) (A) (A) (A) (A) (A) (A) (A)
                 (A) (A) (A) (A) (A) (A) (A) (A) (A) (A) (A) (A)
                 (A) (A) (A) (A) (A) (A) (A) (A) (A) (A) (A) (A)
                 (A) (A) (A) (A) (A) (A) (A) (A) (A) (A) (A) (A)
                 (A) (A) (A) (A) (A) (A) (A) (A) (A) (A) (A) (A)
                 (A) (A) (A) (A) (A) (A) (A) (A) (A) (A) (A) (A)
                 (A) (A) (A) (A) (A) (A) (A) (A) (A) (A) (A) (A)
                 (A) (A) (A) (A) (A) (A) (A) (A) (A) (A) (A) (A)
                 (A) (A) (A) (A) (A) (A) (A) (A) (A) (A) (A) (A)
                 (A) (A) (A) (A) (A) (A) (A) (A) (A) (A) (A) (A)
                 (A) (A) (A) (A) (A) (A) (A) (A) (A) (A) (A) (A)
                 (A) (A) (A) (A) (A) (A) (A) (A) (A) (A) (A) (A)
                 (A) (A) (A) (A) (A) (A) (A) (A) (A) (A) (A) (A)
                 (A) (A) (A) (A) (A) (A) (A) (A) (A) (A) (A) (A)
                 (A) (A) (A) (A) (A) (A) (A) (A) (A) (A) (A) (A)
                 (A) (A) (A) (A) (A) (A) (A) (A) (A) (A) (A) (A)
                 (A) (A) (A) (A) (A) (A) (A) (A) (A) (A) (A) (A)
                 (A) (A) (A) (A) (A) (A) (A) (A) (A) (A) (A) (A)
                 (A) (A) (A) (A) (A) (A) (A) (A) (A) (A) (A) (A)
                 (A) (A) (A) (A) (A) (A) (A) (A) (A) (A) (A) (A)
                 (A) (A) (A) (A) (A) (A) (A) (A) (A) (A) (A) (A)
                 (A) (A) (A) (A) (A) (A) (A) (A) (A) (A) (A) (A)
                 (A) (A) (A) (A) (A) (A) (A) (A) (A) (A) (A) (A)
                 (A) (A) (A) (A) (A) (A) (A) (A) (A) (A) (A) (A)
                 (A) (A) (A) (A) (A) (A) (A) (A) (A) (A) (A) (A)
                 (A) (A) (A) (A) (A) (A) (A) (A) (A) (A) (A) (A)
                 (A) (A) (A) (A) (A) (A) (A) (A) (A) (A) (A) (A)
                 (A) (A) (A) (A) (A) (A) (A) (A) (A) (A) (A) (A)
                 (A) (A) (A) (A) (A) (A) (A) (A) (A) (A) (A) (A)
                 (A) (A) (A) (A) (A) (A) (A) (A) (A) (A) (A) (A)
                 (A) (A) (A) (A) (A) (A) (A) (A) (A) (A) (A) (A)
                 (A) (A) (A) (A) (A) (A) (A) (A) (A) (A) (A) (A)
                 (A) (A) (A) (A) (A) (A) (A) (A) (A) (A) (A) (A)
                 (A) (A) (A) (A) (A) (A) (A) (A) (A) (A) (A) (A)
                 (A) (A) (A) (A) (A) (A) (A) (A) (A) (A) (A) (A)
                 (A) (A) (A) (A) (A) (A) (A) (A) (A) (A) (A) (A)
                 (A) (A) (A) (A) (A) (A) (A) (A) (A) (A) (A) (A)
                 (A) (A) (A) (A) (A) (A) (A) (A) (A) (A) (A) (A)
                 (A) (A) (A) (A) (A) (A) (A) (A) (A) (A) (A) (A)
                 (A) (A) (A) (A) (A) (A) (A) (A) (A) (A) (A) (A)
                 (A) (A) (A) (A) (A) (A) (A) (A) (A) (A) (A) (A)
                 (A) (A) (A) (A) (A) (A) (A) (A) (A) (A) (A) (A)
                 (A) (A) (A) (A) (A) (A) (A) (A) (A) (A) (A) (A)
                 (A) (A) (A) (A) (A) (A) (A) (A) (A) (A) (A) (A)
                 (A) (A) (A) (A) (A) (A) (A) (A) (A) (A) (A) (A)
                 (A) (A) (A) (A) (A) (A) (A) (A) (A) (A) (A) (A)
                 (A) (A) (A) (A) (A) (A) (A) (A) (A) (A) (A) (A)
                 (A) (A) (A) (A) (A) (A) (A) (A) (A) (A) (A) (A)
                 (A) (A) (A) (A) (A) (A) (A) (A) (A) (A) (A) (A)
                 (A) (A) (A) (A) (A) (A) (A) (A) (A) (A) (A) (A)
                 (A) (A) (A) (A) (A) (A) (A) (A) (A) (A) (A) (A)
                 (A) (A) (A) (A) (A) (A) (A) (A) (A) (A) (A) (A)
                 (A) (A) (A) (A) (A) (A) (A) (A) (A) (A) (A) (A)
                 (A) (A) (A) (A) (A) (A) (A) (A) (A) (A) (A) (A)
                 (A) (A) (A) (A) (A) (A) (A) (A) (A) (A) (A) (A)
                 (A) (A) (A) (A) (A) (A) (A) (A) (A) (A) (A) (A)
                 (A) (A) (A) (A) (A) (A) (A) (A) (A) (A) (A) (A)
                 (A) (A) (A) (A) (A) (A) (A) (A) (A) (A) (A) (A)
                 (A) (A) (A) (A) (A) (A) (A) (A) (A) (A) (A) (A)
                 (A) (A) (A) (A) (A) (A) (A) (A) (A) (A) (A) (A)
                 (A) (A) (A) (A) (A) (A) (A) (A) (A) (A) (A) (A)
                 (A) (A) (A) (A) (A) (A) (A) (A) (A) (A) (A) (A)
                 (A) (A) (A) (A) (A) (A) (A) (A) (A) (A) (A) (A)
                 (A) (A) (A) (A) (A) (A) (A) (A) (A) (A) (A) (A)
                 (A) (A) (A) (A) (A) (A) (A) (A) (A) (A) (A) (A)
                 (A) (A) (A) (A) (A) (A) (A) (A) (A) (A) (A) (A)
                 (A) (A) (A) (A) (A) (A) (A) (A) (A) (A) (A) (A)
                 (A) (A) (A) (A) (A) (A) (A) (A) (A) (A) (A) (A)
                 (A) (A) (A) (A) (A) (A) (A) (A) (A) (A) (A) (A)
                 (A) (A) (A) (A) (A) (A) (A) (A) (A) (A) (A) (A)
                 (A) (A) (A) (A) (A) (A) (A) (A) (A) (A) (A) (A)
                 (A) (A) (A) (A) (A) (A) (A) (A) (A) (A) (A) (A)
                 (A) (A) (A) (A) (A) (A) (A) (A) (A) (A) (A) (A)
                 (A) (A) (A) (A) (A) (A) (A) (A) (A) (A) (A) (A)
                 (A) (A) (A) (A) (A) (A) (A) (A) (A) (A) (A) (A)
                 (A) (A) (A) (A) (A) (A) (A) (A) (A) (A) (A) (A)
                 (A) (A) (A) (A) (A) (A) (A) (A) (A) (A) (A) (A)
                 (A) (A) (A) (A) (A) (A) (A) (A) (A) (A) (A) (A)
                 (A) (A) (A) (A) (A) (A) (A) (A) (A) (A) (A) (A)
                 (A) (A) (A) (A) (A) (A) (A) (A) (A) (A) (A) (A)
                 (A) (A) (A) (A) (A) (A) (A) (A) (A) (A) (A) (A)
                 (A) (A) (A) (A) (A) (A) (A) (A) (A) (A) (A) (A)
                 (A) (A) (A) (A) (A) (A) (A) (A) (A) (A) (A) (A)
                 (A) (A) (A) (A) (A) (A) (A) (A) (A) (A) (A) (A)
                 (A) (A) (A) (A) (A) (A) (A) (A) (A) (A) (A) (A)
                 (A) (A) (A) (A) (A) (A) (A) (A) (A) (A) (A) (A)
                 (A) (A) (A) (A) (A) (A) (A) (A) (A) (A) (A) (A)
                 (A) (A) (A) (A) (A) (A) (A) (A) (A) (A) (A) (A)
                 (A) (A) (A) (A) (A) (A) (A) (A) (A) (A) (A) (A)
                 (A) (A) (A) (A) (A) (A) (A) (A) (A) (A) (A) (A)
                 (A) (A) (A) (A) (A) (A) (A) (A) (A) (A) (A) (A)
                 (A) (A) (A) (A) (A) (A) (A) (A) (A) (A) (A) (A)
                 (A) (A) (A) (A) (A) (A) (A) (A) (A) (A) (A) (A)
                 (A) (A) (A) (A) (A) (A) (A) (A) (A) (A) (A) (A)
                 (A) (A) (A) (A) (A) (A) (A) (A) (A) (A) (A) (A)
                 (A) (A) (A) (A) (A) (A) (A) (A) (A) (A) (A) (A)
                 (A) (A) (A) (A) (A) (A) (A) (A) (A) (A) (A) (A)
                 (A) (A) (A) (A) (A) (A) (A) (A) (A) (A) (A) (A)
                 (A) (A) (A) (A) (A) (A) (A) (A) (A) (A) (A) (A)
                 (A) (A) (A) (A) (A) (A) (A) (A) (A) (A) (A) (A)
                 (A) (A) (A) (A) (A) (A) (A) (A) (A) (A) (A) (A)
                 (A) (A) (A) (A) (A) (A) (A) (A) (A) (A) (A) (A)
                 (A) (A) (A) (A) (A) (A) (A) (A) (A) (A) (A) (A)
                 (A) (A) (A) (A) (A) (A) (A) (A) (A) (A) (A) (A)
                 (A) (A) (A) (A) (A) (A) (A) (A) (A) (A) (A) (A)
                 (A) (A) (A) (A) (A) (A) (A) (A) (A) (A) (A) (A)
                 (A) (A) (A) (A) (A) (A) (A) (A) (A) (A) (A) (A)
                 (A) (A) (A) (A) (A) (A) (A) (A) (A) (A) (A) (A)
                 (A) (A) (A) (A) (A) (A) (A) (A) (A) (A) (A) (A)
                 (A) (A) (A) (A) (A) (A) (A) (A) (A) (A) (A) (A)
                 (A) (A) (A) (A) (A) (A) (A) (A) (A) (A) (A) (A)
                 (A) (A) (A) (A) (A) (A) (A) (A) (A) (A) (A) (A)
                 (A) (A) (A) (A) (A) (A) (A) (A) (A) (A) (A) (A)
                 (A) (A) (A) (A) (A) (A) (A) (A) (A) (A) (A) (A)
                 (A) (A) (A) (A) (A) (A) (A) (A) (A) (A) (A) (A)
                 (A) (A) (A) (A) (A) (A) (A) (A) (A) (A) (A) (A)
                 (A) (A) (A) (A) (A) (A) (A) (A) (A) (A) (A) (A)
                 (A) (A) (A) (A) (A) (A) (A) (A) (A) (A) (A)
 Beta  Orbitals:
       Occupied  (A) (A) (A) (A) (A) (A) (A) (A) (A) (A) (A) (A)
                 (A) (A) (A) (A) (A) (A) (A) (A) (A) (A) (A) (A)
                 (A) (A) (A) (A) (A) (A) (A) (A) (A) (A) (A) (A)
                 (A) (A) (A) (A) (A) (A) (A) (A) (A) (A) (A) (A)
                 (A) (A) (A) (A) (A) (A) (A) (A) (A) (A) (A) (A)
                 (A) (A) (A) (A) (A) (A) (A) (A) (A) (A) (A) (A)
                 (A) (A) (A) (A) (A) (A) (A) (A) (A) (A) (A) (A)
                 (A) (A) (A) (A) (A) (A) (A) (A) (A) (A) (A) (A)
                 (A) (A) (A) (A) (A) (A) (A) (A) (A) (A) (A) (A)
                 (A) (A) (A) (A) (A) (A) (A) (A) (A) (A) (A) (A)
                 (A) (A) (A) (A) (A) (A) (A) (A) (A) (A) (A) (A)
                 (A) (A) (A) (A) (A) (A) (A) (A) (A) (A) (A) (A)
                 (A) (A) (A) (A) (A) (A) (A) (A) (A) (A) (A) (A)
                 (A) (A) (A) (A) (A) (A) (A) (A) (A) (A) (A) (A)
                 (A) (A) (A) (A) (A) (A) (A) (A) (A) (A) (A) (A)
                 (A) (A) (A) (A) (A) (A) (A) (A) (A) (A) (A) (A)
                 (A) (A) (A) (A) (A) (A) (A) (A) (A) (A) (A)
       Virtual   (A) (A) (A) (A) (A) (A) (A) (A) (A) (A) (A) (A)
                 (A) (A) (A) (A) (A) (A) (A) (A) (A) (A) (A) (A)
                 (A) (A) (A) (A) (A) (A) (A) (A) (A) (A) (A) (A)
                 (A) (A) (A) (A) (A) (A) (A) (A) (A) (A) (A) (A)
                 (A) (A) (A) (A) (A) (A) (A) (A) (A) (A) (A) (A)
                 (A) (A) (A) (A) (A) (A) (A) (A) (A) (A) (A) (A)
                 (A) (A) (A) (A) (A) (A) (A) (A) (A) (A) (A) (A)
                 (A) (A) (A) (A) (A) (A) (A) (A) (A) (A) (A) (A)
                 (A) (A) (A) (A) (A) (A) (A) (A) (A) (A) (A) (A)
                 (A) (A) (A) (A) (A) (A) (A) (A) (A) (A) (A) (A)
                 (A) (A) (A) (A) (A) (A) (A) (A) (A) (A) (A) (A)
                 (A) (A) (A) (A) (A) (A) (A) (A) (A) (A) (A) (A)
                 (A) (A) (A) (A) (A) (A) (A) (A) (A) (A) (A) (A)
                 (A) (A) (A) (A) (A) (A) (A) (A) (A) (A) (A) (A)
                 (A) (A) (A) (A) (A) (A) (A) (A) (A) (A) (A) (A)
                 (A) (A) (A) (A) (A) (A) (A) (A) (A) (A) (A) (A)
                 (A) (A) (A) (A) (A) (A) (A) (A) (A) (A) (A) (A)
                 (A) (A) (A) (A) (A) (A) (A) (A) (A) (A) (A) (A)
                 (A) (A) (A) (A) (A) (A) (A) (A) (A) (A) (A) (A)
                 (A) (A) (A) (A) (A) (A) (A) (A) (A) (A) (A) (A)
                 (A) (A) (A) (A) (A) (A) (A) (A) (A) (A) (A) (A)
                 (A) (A) (A) (A) (A) (A) (A) (A) (A) (A) (A) (A)
                 (A) (A) (A) (A) (A) (A) (A) (A) (A) (A) (A) (A)
                 (A) (A) (A) (A) (A) (A) (A) (A) (A) (A) (A) (A)
                 (A) (A) (A) (A) (A) (A) (A) (A) (A) (A) (A) (A)
                 (A) (A) (A) (A) (A) (A) (A) (A) (A) (A) (A) (A)
                 (A) (A) (A) (A) (A) (A) (A) (A) (A) (A) (A) (A)
                 (A) (A) (A) (A) (A) (A) (A) (A) (A) (A) (A) (A)
                 (A) (A) (A) (A) (A) (A) (A) (A) (A) (A) (A) (A)
                 (A) (A) (A) (A) (A) (A) (A) (A) (A) (A) (A) (A)
                 (A) (A) (A) (A) (A) (A) (A) (A) (A) (A) (A) (A)
                 (A) (A) (A) (A) (A) (A) (A) (A) (A) (A) (A) (A)
                 (A) (A) (A) (A) (A) (A) (A) (A) (A) (A) (A) (A)
                 (A) (A) (A) (A) (A) (A) (A) (A) (A) (A) (A) (A)
                 (A) (A) (A) (A) (A) (A) (A) (A) (A) (A) (A) (A)
                 (A) (A) (A) (A) (A) (A) (A) (A) (A) (A) (A) (A)
                 (A) (A) (A) (A) (A) (A) (A) (A) (A) (A) (A) (A)
                 (A) (A) (A) (A) (A) (A) (A) (A) (A) (A) (A) (A)
                 (A) (A) (A) (A) (A) (A) (A) (A) (A) (A) (A) (A)
                 (A) (A) (A) (A) (A) (A) (A) (A) (A) (A) (A) (A)
                 (A) (A) (A) (A) (A) (A) (A) (A) (A) (A) (A) (A)
                 (A) (A) (A) (A) (A) (A) (A) (A) (A) (A) (A) (A)
                 (A) (A) (A) (A) (A) (A) (A) (A) (A) (A) (A) (A)
                 (A) (A) (A) (A) (A) (A) (A) (A) (A) (A) (A) (A)
                 (A) (A) (A) (A) (A) (A) (A) (A) (A) (A) (A) (A)
                 (A) (A) (A) (A) (A) (A) (A) (A) (A) (A) (A) (A)
                 (A) (A) (A) (A) (A) (A) (A) (A) (A) (A) (A) (A)
                 (A) (A) (A) (A) (A) (A) (A) (A) (A) (A) (A) (A)
                 (A) (A) (A) (A) (A) (A) (A) (A) (A) (A) (A) (A)
                 (A) (A) (A) (A) (A) (A) (A) (A) (A) (A) (A) (A)
                 (A) (A) (A) (A) (A) (A) (A) (A) (A) (A) (A) (A)
                 (A) (A) (A) (A) (A) (A) (A) (A) (A) (A) (A) (A)
                 (A) (A) (A) (A) (A) (A) (A) (A) (A) (A) (A) (A)
                 (A) (A) (A) (A) (A) (A) (A) (A) (A) (A) (A) (A)
                 (A) (A) (A) (A) (A) (A) (A) (A) (A) (A) (A) (A)
                 (A) (A) (A) (A) (A) (A) (A) (A) (A) (A) (A) (A)
                 (A) (A) (A) (A) (A) (A) (A) (A) (A) (A) (A) (A)
                 (A) (A) (A) (A) (A) (A) (A) (A) (A) (A) (A) (A)
                 (A) (A) (A) (A) (A) (A) (A) (A) (A) (A) (A) (A)
                 (A) (A) (A) (A) (A) (A) (A) (A) (A) (A) (A) (A)
                 (A) (A) (A) (A) (A) (A) (A) (A) (A) (A) (A) (A)
                 (A) (A) (A) (A) (A) (A) (A) (A) (A) (A) (A) (A)
                 (A) (A) (A) (A) (A) (A) (A) (A) (A) (A) (A) (A)
                 (A) (A) (A) (A) (A) (A) (A) (A) (A) (A) (A) (A)
                 (A) (A) (A) (A) (A) (A) (A) (A) (A) (A) (A) (A)
                 (A) (A) (A) (A) (A) (A) (A) (A) (A) (A) (A) (A)
                 (A) (A) (A) (A) (A) (A) (A) (A) (A) (A) (A) (A)
                 (A) (A) (A) (A) (A) (A) (A) (A) (A) (A) (A) (A)
                 (A) (A) (A) (A) (A) (A) (A) (A) (A) (A) (A) (A)
                 (A) (A) (A) (A) (A) (A) (A) (A) (A) (A) (A) (A)
                 (A) (A) (A) (A) (A) (A) (A) (A) (A) (A) (A) (A)
                 (A) (A) (A) (A) (A) (A) (A) (A) (A) (A) (A) (A)
                 (A) (A) (A) (A) (A) (A) (A) (A) (A) (A) (A) (A)
                 (A) (A) (A) (A) (A) (A) (A) (A) (A) (A) (A) (A)
                 (A) (A) (A) (A) (A) (A) (A) (A) (A) (A) (A) (A)
                 (A) (A) (A) (A) (A) (A) (A) (A) (A) (A) (A) (A)
                 (A) (A) (A) (A) (A) (A) (A) (A) (A) (A) (A) (A)
                 (A) (A) (A) (A) (A) (A) (A) (A) (A) (A) (A) (A)
                 (A) (A) (A) (A) (A) (A) (A) (A) (A) (A) (A) (A)
                 (A) (A) (A) (A) (A) (A) (A) (A) (A) (A) (A) (A)
                 (A) (A) (A) (A) (A) (A) (A) (A) (A) (A) (A) (A)
                 (A) (A) (A) (A) (A) (A) (A) (A) (A) (A) (A) (A)
                 (A) (A) (A) (A) (A) (A) (A) (A) (A) (A) (A) (A)
                 (A) (A) (A) (A) (A) (A) (A) (A) (A) (A) (A) (A)
                 (A) (A) (A) (A) (A) (A) (A) (A) (A) (A) (A) (A)
                 (A) (A) (A) (A) (A) (A) (A) (A) (A) (A) (A) (A)
                 (A) (A) (A) (A) (A) (A) (A) (A) (A) (A) (A) (A)
                 (A) (A) (A) (A) (A) (A) (A) (A) (A) (A) (A) (A)
                 (A) (A) (A) (A) (A) (A) (A) (A) (A) (A) (A) (A)
                 (A) (A) (A) (A) (A) (A) (A) (A) (A) (A) (A) (A)
                 (A) (A) (A) (A) (A) (A) (A) (A) (A) (A) (A) (A)
                 (A) (A) (A) (A) (A) (A) (A) (A) (A) (A) (A) (A)
                 (A) (A) (A) (A) (A) (A) (A) (A) (A) (A) (A) (A)
                 (A) (A) (A) (A) (A) (A) (A) (A) (A) (A) (A) (A)
                 (A) (A) (A) (A) (A) (A) (A) (A) (A) (A) (A) (A)
                 (A) (A) (A) (A) (A) (A) (A) (A) (A) (A) (A) (A)
                 (A) (A) (A) (A) (A) (A) (A) (A) (A) (A) (A) (A)
                 (A) (A) (A) (A) (A) (A) (A) (A) (A) (A) (A) (A)
                 (A) (A) (A) (A) (A) (A) (A) (A) (A) (A) (A) (A)
                 (A) (A) (A) (A) (A) (A) (A) (A) (A) (A) (A) (A)
                 (A) (A) (A) (A) (A) (A) (A) (A) (A) (A) (A) (A)
                 (A) (A) (A) (A) (A) (A) (A) (A) (A) (A) (A) (A)
                 (A) (A) (A) (A) (A) (A) (A) (A) (A) (A) (A) (A)
                 (A) (A) (A) (A) (A) (A) (A) (A) (A) (A) (A) (A)
                 (A) (A) (A) (A) (A) (A) (A) (A) (A) (A) (A) (A)
                 (A) (A) (A) (A) (A) (A) (A) (A) (A) (A) (A) (A)
                 (A) (A) (A) (A) (A) (A) (A) (A) (A) (A) (A) (A)
                 (A) (A) (A) (A) (A) (A) (A) (A) (A) (A) (A) (A)
                 (A) (A) (A) (A) (A) (A) (A) (A) (A) (A) (A) (A)
                 (A) (A) (A) (A) (A) (A) (A) (A) (A) (A) (A) (A)
                 (A) (A) (A) (A) (A) (A) (A) (A) (A) (A) (A) (A)
                 (A) (A) (A) (A) (A) (A) (A) (A) (A) (A) (A) (A)
                 (A) (A) (A) (A) (A) (A) (A) (A) (A) (A) (A) (A)
                 (A) (A) (A) (A) (A) (A) (A) (A) (A) (A) (A) (A)
                 (A) (A) (A) (A) (A) (A) (A) (A) (A) (A) (A) (A)
                 (A) (A) (A) (A) (A) (A) (A) (A) (A) (A) (A) (A)
                 (A) (A) (A) (A) (A) (A) (A) (A) (A) (A) (A) (A)
                 (A) (A) (A) (A) (A) (A) (A) (A) (A) (A) (A) (A)
                 (A) (A) (A) (A) (A) (A) (A) (A) (A) (A) (A) (A)
                 (A) (A) (A) (A) (A) (A) (A) (A) (A) (A) (A) (A)
                 (A) (A) (A) (A) (A) (A) (A) (A) (A) (A) (A) (A)
                 (A) (A) (A) (A) (A) (A) (A) (A) (A) (A) (A) (A)
                 (A) (A) (A) (A) (A) (A) (A) (A) (A) (A) (A) (A)
                 (A) (A) (A) (A) (A) (A) (A) (A) (A) (A) (A) (A)
                 (A) (A) (A) (A) (A) (A) (A) (A) (A) (A) (A) (A)
                 (A) (A) (A) (A) (A) (A) (A) (A) (A) (A) (A) (A)
                 (A) (A) (A) (A) (A) (A) (A) (A) (A) (A) (A) (A)
                 (A) (A) (A) (A) (A) (A) (A) (A) (A) (A) (A) (A)
                 (A) (A) (A) (A) (A) (A) (A) (A) (A) (A) (A) (A)
                 (A) (A) (A) (A) (A) (A) (A) (A) (A) (A) (A) (A)
                 (A) (A) (A) (A) (A) (A) (A) (A) (A) (A) (A) (A)
                 (A) (A) (A) (A) (A) (A) (A) (A) (A) (A) (A) (A)
                 (A) (A) (A) (A) (A) (A) (A) (A) (A) (A) (A) (A)
                 (A) (A) (A) (A) (A) (A) (A) (A) (A) (A) (A) (A)
                 (A) (A) (A) (A) (A) (A) (A) (A) (A) (A) (A) (A)
                 (A) (A) (A) (A) (A) (A) (A) (A) (A) (A) (A) (A)
                 (A) (A) (A) (A) (A) (A) (A) (A) (A) (A) (A) (A)
                 (A) (A) (A) (A) (A) (A) (A) (A) (A) (A) (A) (A)
                 (A) (A) (A) (A) (A) (A) (A) (A) (A) (A) (A) (A)
                 (A) (A) (A) (A) (A) (A) (A) (A) (A) (A) (A) (A)
                 (A) (A) (A) (A) (A) (A) (A) (A) (A) (A) (A) (A)
                 (A) (A) (A) (A) (A) (A) (A) (A) (A) (A) (A) (A)
                 (A) (A) (A) (A) (A) (A) (A) (A) (A) (A) (A) (A)
                 (A) (A) (A) (A) (A) (A) (A) (A) (A) (A) (A) (A)
                 (A) (A) (A) (A) (A) (A) (A) (A) (A) (A) (A) (A)
                 (A) (A) (A) (A) (A) (A) (A) (A) (A) (A) (A) (A)
                 (A) (A) (A) (A) (A) (A) (A) (A) (A) (A) (A) (A)
                 (A) (A) (A) (A) (A) (A) (A) (A) (A) (A) (A) (A)
                 (A) (A) (A) (A) (A) (A) (A) (A) (A) (A) (A) (A)
                 (A) (A) (A) (A)
 The electronic state is 6-A.
 Alpha  occ. eigenvalues -- -256.51170 -30.32001 -26.15428 -26.13250 -26.13172
 Alpha  occ. eigenvalues --  -19.33415 -19.32622 -19.25162 -19.23870 -14.54162
 Alpha  occ. eigenvalues --  -14.54121 -14.48961 -14.48665 -14.48479 -14.48435
 Alpha  occ. eigenvalues --  -14.48324 -14.48271 -10.42225 -10.41618 -10.37994
 Alpha  occ. eigenvalues --  -10.37788 -10.35842 -10.35531 -10.35500 -10.35483
 Alpha  occ. eigenvalues --  -10.35441 -10.35288 -10.35226 -10.35202 -10.35192
 Alpha  occ. eigenvalues --  -10.34964 -10.32954 -10.32675 -10.32569 -10.32397
 Alpha  occ. eigenvalues --  -10.32340 -10.32308 -10.32278 -10.32254 -10.32188
 Alpha  occ. eigenvalues --  -10.32123 -10.31902 -10.31715 -10.31521 -10.31418
 Alpha  occ. eigenvalues --  -10.31415 -10.31406 -10.31167 -10.31007 -10.30994
 Alpha  occ. eigenvalues --  -10.30957 -10.30680 -10.30678 -10.30556 -10.30366
 Alpha  occ. eigenvalues --  -10.30335 -10.30048 -10.28802 -10.28407  -3.71364
 Alpha  occ. eigenvalues --   -2.51044  -2.45310  -2.45179  -1.24147  -1.24034
 Alpha  occ. eigenvalues --   -1.15977  -1.15958  -1.10058  -1.09029  -1.08996
 Alpha  occ. eigenvalues --   -1.07974  -1.07808  -1.06833  -1.00501  -1.00433
 Alpha  occ. eigenvalues --   -0.94664  -0.94146  -0.93915  -0.93652  -0.93113
 Alpha  occ. eigenvalues --   -0.91546  -0.91228  -0.90400  -0.90367  -0.88937
 Alpha  occ. eigenvalues --   -0.88146  -0.87638  -0.87069  -0.85775  -0.83739
 Alpha  occ. eigenvalues --   -0.82083  -0.81840  -0.81583  -0.81475  -0.81336
 Alpha  occ. eigenvalues --   -0.79544  -0.78153  -0.77439  -0.76209  -0.76103
 Alpha  occ. eigenvalues --   -0.74695  -0.74422  -0.74384  -0.74169  -0.73123
 Alpha  occ. eigenvalues --   -0.72798  -0.71747  -0.71658  -0.69549  -0.68393
 Alpha  occ. eigenvalues --   -0.66167  -0.66088  -0.65875  -0.65172  -0.64953
 Alpha  occ. eigenvalues --   -0.64397  -0.62908  -0.62676  -0.62326  -0.61583
 Alpha  occ. eigenvalues --   -0.61116  -0.60342  -0.59150  -0.58770  -0.58188
 Alpha  occ. eigenvalues --   -0.57990  -0.57715  -0.57541  -0.57282  -0.57204
 Alpha  occ. eigenvalues --   -0.56874  -0.56135  -0.55926  -0.55778  -0.55244
 Alpha  occ. eigenvalues --   -0.54890  -0.54805  -0.54499  -0.54431  -0.54241
 Alpha  occ. eigenvalues --   -0.53831  -0.53740  -0.53516  -0.53424  -0.53136
 Alpha  occ. eigenvalues --   -0.52868  -0.52750  -0.52516  -0.52222  -0.52197
 Alpha  occ. eigenvalues --   -0.51942  -0.51826  -0.51716  -0.51526  -0.51366
 Alpha  occ. eigenvalues --   -0.51232  -0.51108  -0.50933  -0.50742  -0.50516
 Alpha  occ. eigenvalues --   -0.50402  -0.50172  -0.49907  -0.49474  -0.49231
 Alpha  occ. eigenvalues --   -0.49132  -0.48918  -0.48578  -0.48317  -0.48249
 Alpha  occ. eigenvalues --   -0.47889  -0.47776  -0.47635  -0.47340  -0.47091
 Alpha  occ. eigenvalues --   -0.47060  -0.46306  -0.46161  -0.45639  -0.45266
 Alpha  occ. eigenvalues --   -0.44638  -0.44403  -0.43482  -0.43376  -0.43147
 Alpha  occ. eigenvalues --   -0.42984  -0.42662  -0.42581  -0.41800  -0.40870
 Alpha  occ. eigenvalues --   -0.40189  -0.40029  -0.38976  -0.38619  -0.38233
 Alpha  occ. eigenvalues --   -0.35807  -0.35509  -0.35275  -0.34735  -0.34088
 Alpha  occ. eigenvalues --   -0.33855  -0.33446  -0.33325  -0.32974  -0.30455
 Alpha  occ. eigenvalues --   -0.29840  -0.28396  -0.27381
 Alpha virt. eigenvalues --   -0.17675  -0.17414  -0.16930  -0.10920  -0.08890
 Alpha virt. eigenvalues --   -0.07967  -0.07639  -0.07229  -0.06596  -0.05892
 Alpha virt. eigenvalues --   -0.05692  -0.05193  -0.04995  -0.04784  -0.04208
 Alpha virt. eigenvalues --   -0.04029  -0.03758  -0.03263  -0.03130  -0.02582
 Alpha virt. eigenvalues --   -0.02472  -0.02266  -0.01686  -0.01545  -0.01371
 Alpha virt. eigenvalues --   -0.00961  -0.00702  -0.00485  -0.00051   0.00161
 Alpha virt. eigenvalues --    0.00365   0.00857   0.01223   0.01296   0.01549
 Alpha virt. eigenvalues --    0.01755   0.01812   0.02160   0.02501   0.02744
 Alpha virt. eigenvalues --    0.02917   0.03048   0.03396   0.03714   0.03854
 Alpha virt. eigenvalues --    0.03970   0.04267   0.04400   0.04621   0.04653
 Alpha virt. eigenvalues --    0.04869   0.05090   0.05225   0.05491   0.05565
 Alpha virt. eigenvalues --    0.05717   0.05963   0.06245   0.06408   0.06532
 Alpha virt. eigenvalues --    0.06633   0.06861   0.07014   0.07200   0.07294
 Alpha virt. eigenvalues --    0.07554   0.07730   0.07883   0.08051   0.08318
 Alpha virt. eigenvalues --    0.08388   0.08821   0.09106   0.09404   0.09687
 Alpha virt. eigenvalues --    0.09774   0.10230   0.10493   0.10565   0.10986
 Alpha virt. eigenvalues --    0.11142   0.11304   0.11334   0.11399   0.11668
 Alpha virt. eigenvalues --    0.11981   0.12249   0.12440   0.12542   0.12753
 Alpha virt. eigenvalues --    0.12877   0.13211   0.13399   0.13555   0.13768
 Alpha virt. eigenvalues --    0.13904   0.14306   0.14420   0.14575   0.14743
 Alpha virt. eigenvalues --    0.15013   0.15202   0.15427   0.15575   0.15710
 Alpha virt. eigenvalues --    0.15925   0.16172   0.16279   0.16346   0.16530
 Alpha virt. eigenvalues --    0.16730   0.17103   0.17292   0.17470   0.17673
 Alpha virt. eigenvalues --    0.17944   0.18078   0.18170   0.18445   0.18745
 Alpha virt. eigenvalues --    0.19103   0.19212   0.19250   0.19617   0.20001
 Alpha virt. eigenvalues --    0.20139   0.20267   0.20529   0.20557   0.20862
 Alpha virt. eigenvalues --    0.21212   0.21392   0.21627   0.21976   0.22135
 Alpha virt. eigenvalues --    0.22385   0.22726   0.22802   0.22917   0.23164
 Alpha virt. eigenvalues --    0.23535   0.23672   0.24040   0.24103   0.24145
 Alpha virt. eigenvalues --    0.24357   0.24707   0.24744   0.25392   0.25491
 Alpha virt. eigenvalues --    0.25523   0.25764   0.25888   0.26187   0.26199
 Alpha virt. eigenvalues --    0.26630   0.27023   0.27233   0.27319   0.27667
 Alpha virt. eigenvalues --    0.27802   0.28055   0.28304   0.28436   0.28623
 Alpha virt. eigenvalues --    0.28788   0.28995   0.29189   0.29409   0.29688
 Alpha virt. eigenvalues --    0.30058   0.30133   0.30334   0.30557   0.30586
 Alpha virt. eigenvalues --    0.30827   0.30915   0.31161   0.31346   0.31467
 Alpha virt. eigenvalues --    0.31609   0.31726   0.31971   0.32072   0.32391
 Alpha virt. eigenvalues --    0.32567   0.32663   0.32859   0.32977   0.33059
 Alpha virt. eigenvalues --    0.33332   0.33468   0.33546   0.33780   0.34064
 Alpha virt. eigenvalues --    0.34215   0.34292   0.34481   0.34800   0.34987
 Alpha virt. eigenvalues --    0.35221   0.35300   0.35454   0.35601   0.35949
 Alpha virt. eigenvalues --    0.35968   0.36094   0.36368   0.36571   0.36657
 Alpha virt. eigenvalues --    0.36775   0.36967   0.37174   0.37380   0.37640
 Alpha virt. eigenvalues --    0.37735   0.38058   0.38196   0.38353   0.38372
 Alpha virt. eigenvalues --    0.38698   0.38738   0.38927   0.39021   0.39027
 Alpha virt. eigenvalues --    0.39377   0.39598   0.39784   0.40034   0.40114
 Alpha virt. eigenvalues --    0.40340   0.40496   0.40558   0.40717   0.40896
 Alpha virt. eigenvalues --    0.41170   0.41316   0.41401   0.41624   0.41754
 Alpha virt. eigenvalues --    0.41890   0.41986   0.42221   0.42372   0.42595
 Alpha virt. eigenvalues --    0.42646   0.42885   0.43047   0.43312   0.43520
 Alpha virt. eigenvalues --    0.43656   0.43886   0.44011   0.44178   0.44429
 Alpha virt. eigenvalues --    0.44479   0.44586   0.44714   0.44943   0.45130
 Alpha virt. eigenvalues --    0.45452   0.45646   0.45794   0.45971   0.46370
 Alpha virt. eigenvalues --    0.46592   0.46693   0.47044   0.47062   0.47366
 Alpha virt. eigenvalues --    0.47416   0.47797   0.48031   0.48232   0.48662
 Alpha virt. eigenvalues --    0.48947   0.49035   0.49158   0.49330   0.49683
 Alpha virt. eigenvalues --    0.50032   0.50169   0.50333   0.50371   0.50510
 Alpha virt. eigenvalues --    0.50678   0.51013   0.51296   0.51477   0.51564
 Alpha virt. eigenvalues --    0.51808   0.52214   0.52380   0.52541   0.52674
 Alpha virt. eigenvalues --    0.52779   0.52965   0.53112   0.53443   0.53637
 Alpha virt. eigenvalues --    0.53821   0.54057   0.54254   0.54496   0.54650
 Alpha virt. eigenvalues --    0.55014   0.55126   0.55528   0.55883   0.56123
 Alpha virt. eigenvalues --    0.56181   0.56504   0.56674   0.56877   0.56991
 Alpha virt. eigenvalues --    0.57181   0.57667   0.57941   0.58119   0.58399
 Alpha virt. eigenvalues --    0.58784   0.59055   0.59297   0.59532   0.59562
 Alpha virt. eigenvalues --    0.60008   0.60172   0.60309   0.60523   0.60780
 Alpha virt. eigenvalues --    0.60982   0.61455   0.61846   0.61880   0.62226
 Alpha virt. eigenvalues --    0.62265   0.62705   0.63083   0.63141   0.63656
 Alpha virt. eigenvalues --    0.64052   0.64278   0.64442   0.64804   0.65261
 Alpha virt. eigenvalues --    0.65601   0.65861   0.66242   0.66374   0.66530
 Alpha virt. eigenvalues --    0.66647   0.66930   0.67529   0.67609   0.67850
 Alpha virt. eigenvalues --    0.68149   0.68455   0.68641   0.69169   0.69369
 Alpha virt. eigenvalues --    0.69538   0.69688   0.70392   0.70778   0.71123
 Alpha virt. eigenvalues --    0.71375   0.71452   0.71490   0.71911   0.72056
 Alpha virt. eigenvalues --    0.72756   0.73061   0.73452   0.73479   0.73676
 Alpha virt. eigenvalues --    0.73815   0.74133   0.74463   0.74919   0.75121
 Alpha virt. eigenvalues --    0.75298   0.75542   0.76088   0.76206   0.76595
 Alpha virt. eigenvalues --    0.76794   0.77238   0.77517   0.77657   0.78243
 Alpha virt. eigenvalues --    0.78528   0.78848   0.78928   0.79056   0.79642
 Alpha virt. eigenvalues --    0.79728   0.80112   0.80186   0.80719   0.80758
 Alpha virt. eigenvalues --    0.81109   0.81423   0.81861   0.81966   0.82207
 Alpha virt. eigenvalues --    0.82523   0.82642   0.82913   0.83141   0.83436
 Alpha virt. eigenvalues --    0.83568   0.83955   0.84124   0.84651   0.84879
 Alpha virt. eigenvalues --    0.85027   0.85313   0.85530   0.85754   0.85952
 Alpha virt. eigenvalues --    0.86525   0.86629   0.86854   0.87303   0.87444
 Alpha virt. eigenvalues --    0.87608   0.88008   0.88076   0.88533   0.88670
 Alpha virt. eigenvalues --    0.89369   0.89393   0.89589   0.89834   0.89904
 Alpha virt. eigenvalues --    0.90169   0.90486   0.90852   0.91044   0.91246
 Alpha virt. eigenvalues --    0.91485   0.91615   0.91696   0.92091   0.92338
 Alpha virt. eigenvalues --    0.92788   0.93314   0.93358   0.93535   0.93880
 Alpha virt. eigenvalues --    0.94058   0.94552   0.94796   0.95095   0.95289
 Alpha virt. eigenvalues --    0.95708   0.96116   0.96183   0.96321   0.96659
 Alpha virt. eigenvalues --    0.96925   0.97120   0.97569   0.97788   0.97890
 Alpha virt. eigenvalues --    0.98171   0.98306   0.98719   0.98996   0.99170
 Alpha virt. eigenvalues --    0.99899   1.00131   1.00262   1.00858   1.01046
 Alpha virt. eigenvalues --    1.01558   1.01868   1.02021   1.02462   1.02799
 Alpha virt. eigenvalues --    1.03085   1.03354   1.03829   1.04044   1.04306
 Alpha virt. eigenvalues --    1.04559   1.04952   1.05100   1.05376   1.05962
 Alpha virt. eigenvalues --    1.05997   1.06288   1.06808   1.07090   1.07455
 Alpha virt. eigenvalues --    1.07536   1.08147   1.08361   1.08623   1.08915
 Alpha virt. eigenvalues --    1.09347   1.09654   1.10264   1.10491   1.10844
 Alpha virt. eigenvalues --    1.11018   1.11459   1.12154   1.12272   1.12846
 Alpha virt. eigenvalues --    1.13146   1.13308   1.13764   1.14214   1.14614
 Alpha virt. eigenvalues --    1.14673   1.14860   1.15088   1.15329   1.16077
 Alpha virt. eigenvalues --    1.16408   1.16705   1.17055   1.17199   1.17338
 Alpha virt. eigenvalues --    1.17534   1.17811   1.18503   1.18978   1.19302
 Alpha virt. eigenvalues --    1.19576   1.20222   1.20325   1.20453   1.20816
 Alpha virt. eigenvalues --    1.20992   1.21400   1.21955   1.22045   1.22249
 Alpha virt. eigenvalues --    1.23074   1.23373   1.23628   1.24065   1.24334
 Alpha virt. eigenvalues --    1.24603   1.25165   1.25409   1.26109   1.26213
 Alpha virt. eigenvalues --    1.26507   1.26889   1.27565   1.27646   1.28032
 Alpha virt. eigenvalues --    1.28671   1.28869   1.29384   1.29526   1.29819
 Alpha virt. eigenvalues --    1.30330   1.30574   1.30892   1.30976   1.31345
 Alpha virt. eigenvalues --    1.31628   1.32248   1.32555   1.32630   1.33161
 Alpha virt. eigenvalues --    1.33261   1.33765   1.33930   1.34174   1.34832
 Alpha virt. eigenvalues --    1.35358   1.35519   1.35757   1.35898   1.36063
 Alpha virt. eigenvalues --    1.36582   1.37225   1.37659   1.37928   1.38378
 Alpha virt. eigenvalues --    1.38929   1.39184   1.39531   1.39773   1.39839
 Alpha virt. eigenvalues --    1.40261   1.40685   1.40896   1.41225   1.41638
 Alpha virt. eigenvalues --    1.41953   1.42342   1.42467   1.42631   1.42914
 Alpha virt. eigenvalues --    1.43260   1.43729   1.43785   1.44200   1.44286
 Alpha virt. eigenvalues --    1.44629   1.44785   1.44860   1.45020   1.45207
 Alpha virt. eigenvalues --    1.45392   1.45521   1.45960   1.46187   1.46322
 Alpha virt. eigenvalues --    1.46664   1.46842   1.47133   1.47407   1.47621
 Alpha virt. eigenvalues --    1.47863   1.48295   1.48297   1.48541   1.48692
 Alpha virt. eigenvalues --    1.48958   1.49192   1.49404   1.49803   1.49897
 Alpha virt. eigenvalues --    1.50307   1.50405   1.50785   1.50997   1.51211
 Alpha virt. eigenvalues --    1.51250   1.51562   1.51813   1.52323   1.52579
 Alpha virt. eigenvalues --    1.52668   1.53324   1.53500   1.53625   1.53875
 Alpha virt. eigenvalues --    1.54182   1.54439   1.54524   1.55005   1.55133
 Alpha virt. eigenvalues --    1.55287   1.55510   1.55771   1.55914   1.56025
 Alpha virt. eigenvalues --    1.56297   1.56990   1.57230   1.57554   1.57760
 Alpha virt. eigenvalues --    1.57922   1.58122   1.58248   1.58279   1.58846
 Alpha virt. eigenvalues --    1.59077   1.59339   1.59414   1.59856   1.60059
 Alpha virt. eigenvalues --    1.60187   1.60351   1.60714   1.61124   1.61274
 Alpha virt. eigenvalues --    1.61994   1.62408   1.62712   1.62769   1.63126
 Alpha virt. eigenvalues --    1.63274   1.63679   1.63870   1.64310   1.64822
 Alpha virt. eigenvalues --    1.64853   1.65334   1.65423   1.65721   1.66068
 Alpha virt. eigenvalues --    1.66493   1.66606   1.66973   1.67386   1.67548
 Alpha virt. eigenvalues --    1.68341   1.68603   1.69111   1.69727   1.69933
 Alpha virt. eigenvalues --    1.70430   1.70817   1.71027   1.71933   1.72282
 Alpha virt. eigenvalues --    1.72674   1.73101   1.73394   1.73808   1.74241
 Alpha virt. eigenvalues --    1.74434   1.74602   1.74962   1.75152   1.75664
 Alpha virt. eigenvalues --    1.75947   1.76344   1.76593   1.76900   1.77279
 Alpha virt. eigenvalues --    1.77474   1.77868   1.78007   1.78466   1.78570
 Alpha virt. eigenvalues --    1.78627   1.79584   1.80230   1.80364   1.80863
 Alpha virt. eigenvalues --    1.81089   1.81443   1.81869   1.81972   1.82412
 Alpha virt. eigenvalues --    1.82603   1.82896   1.83561   1.83663   1.84015
 Alpha virt. eigenvalues --    1.84326   1.84672   1.85105   1.85549   1.85687
 Alpha virt. eigenvalues --    1.85929   1.86263   1.86500   1.87019   1.87256
 Alpha virt. eigenvalues --    1.87825   1.88212   1.88477   1.88651   1.89259
 Alpha virt. eigenvalues --    1.89370   1.89512   1.89773   1.90201   1.90239
 Alpha virt. eigenvalues --    1.90665   1.91306   1.91656   1.91968   1.92322
 Alpha virt. eigenvalues --    1.92559   1.92880   1.93240   1.94073   1.94129
 Alpha virt. eigenvalues --    1.94757   1.95227   1.95570   1.95986   1.96307
 Alpha virt. eigenvalues --    1.96598   1.96760   1.97215   1.97412   1.97779
 Alpha virt. eigenvalues --    1.98021   1.98723   1.99076   1.99245   1.99655
 Alpha virt. eigenvalues --    1.99815   2.00432   2.00815   2.01251   2.01536
 Alpha virt. eigenvalues --    2.01729   2.02439   2.02775   2.02966   2.03280
 Alpha virt. eigenvalues --    2.03320   2.03510   2.04165   2.04468   2.04829
 Alpha virt. eigenvalues --    2.05591   2.05815   2.06180   2.06538   2.06674
 Alpha virt. eigenvalues --    2.07128   2.07330   2.07743   2.07961   2.08532
 Alpha virt. eigenvalues --    2.08779   2.09094   2.09518   2.09691   2.10087
 Alpha virt. eigenvalues --    2.10198   2.10476   2.10619   2.10826   2.11266
 Alpha virt. eigenvalues --    2.11585   2.11774   2.12130   2.12852   2.13009
 Alpha virt. eigenvalues --    2.13090   2.13454   2.13764   2.13869   2.14165
 Alpha virt. eigenvalues --    2.14405   2.14887   2.15070   2.15390   2.15953
 Alpha virt. eigenvalues --    2.16441   2.17277   2.17497   2.17872   2.18449
 Alpha virt. eigenvalues --    2.18603   2.18843   2.18886   2.19805   2.19898
 Alpha virt. eigenvalues --    2.20306   2.20682   2.20885   2.21229   2.21606
 Alpha virt. eigenvalues --    2.22162   2.22448   2.22482   2.23073   2.23280
 Alpha virt. eigenvalues --    2.23567   2.24210   2.24938   2.25143   2.25557
 Alpha virt. eigenvalues --    2.25720   2.26100   2.26398   2.26632   2.26899
 Alpha virt. eigenvalues --    2.27681   2.28453   2.28570   2.28915   2.29017
 Alpha virt. eigenvalues --    2.29187   2.29518   2.29970   2.30293   2.30498
 Alpha virt. eigenvalues --    2.30932   2.31506   2.31635   2.31881   2.32173
 Alpha virt. eigenvalues --    2.32363   2.32794   2.33021   2.33602   2.33634
 Alpha virt. eigenvalues --    2.34006   2.34080   2.34273   2.34766   2.34947
 Alpha virt. eigenvalues --    2.35463   2.35500   2.36093   2.36337   2.36561
 Alpha virt. eigenvalues --    2.36923   2.37066   2.37645   2.38042   2.38194
 Alpha virt. eigenvalues --    2.38604   2.39035   2.39552   2.39668   2.39881
 Alpha virt. eigenvalues --    2.40271   2.40591   2.41193   2.41538   2.42120
 Alpha virt. eigenvalues --    2.42204   2.42727   2.43192   2.43734   2.44210
 Alpha virt. eigenvalues --    2.44412   2.44715   2.44973   2.45558   2.46044
 Alpha virt. eigenvalues --    2.46865   2.46973   2.47112   2.47404   2.47573
 Alpha virt. eigenvalues --    2.47805   2.48329   2.48485   2.48681   2.48939
 Alpha virt. eigenvalues --    2.49368   2.49675   2.49970   2.50065   2.50239
 Alpha virt. eigenvalues --    2.50393   2.50639   2.50882   2.51142   2.51457
 Alpha virt. eigenvalues --    2.51590   2.52177   2.52336   2.52655   2.53147
 Alpha virt. eigenvalues --    2.53277   2.53655   2.53752   2.54327   2.54461
 Alpha virt. eigenvalues --    2.54597   2.54769   2.54893   2.55833   2.55995
 Alpha virt. eigenvalues --    2.56303   2.56861   2.56980   2.57338   2.57712
 Alpha virt. eigenvalues --    2.57802   2.57959   2.58331   2.58895   2.58992
 Alpha virt. eigenvalues --    2.59362   2.59868   2.59976   2.60566   2.61063
 Alpha virt. eigenvalues --    2.61308   2.61669   2.61927   2.62296   2.62356
 Alpha virt. eigenvalues --    2.62932   2.63177   2.63652   2.63693   2.64273
 Alpha virt. eigenvalues --    2.64323   2.64710   2.64889   2.65247   2.65488
 Alpha virt. eigenvalues --    2.65626   2.65897   2.66105   2.66604   2.66967
 Alpha virt. eigenvalues --    2.67348   2.67519   2.67877   2.68109   2.68363
 Alpha virt. eigenvalues --    2.68558   2.68838   2.69106   2.69235   2.69589
 Alpha virt. eigenvalues --    2.70424   2.70642   2.71263   2.71559   2.72215
 Alpha virt. eigenvalues --    2.72554   2.72708   2.72839   2.73171   2.73678
 Alpha virt. eigenvalues --    2.73945   2.74079   2.74397   2.74695   2.75025
 Alpha virt. eigenvalues --    2.75473   2.75805   2.76056   2.76709   2.77001
 Alpha virt. eigenvalues --    2.77216   2.77564   2.77747   2.78631   2.78682
 Alpha virt. eigenvalues --    2.78988   2.79331   2.79492   2.79970   2.80096
 Alpha virt. eigenvalues --    2.80528   2.81099   2.81407   2.81759   2.82389
 Alpha virt. eigenvalues --    2.82642   2.82744   2.83324   2.83543   2.83792
 Alpha virt. eigenvalues --    2.84239   2.84722   2.84893   2.85095   2.85501
 Alpha virt. eigenvalues --    2.85774   2.85963   2.86110   2.86603   2.86642
 Alpha virt. eigenvalues --    2.86969   2.87383   2.87693   2.87915   2.88025
 Alpha virt. eigenvalues --    2.88624   2.88658   2.88901   2.89024   2.89449
 Alpha virt. eigenvalues --    2.89617   2.89820   2.90476   2.90591   2.90948
 Alpha virt. eigenvalues --    2.91010   2.91220   2.91420   2.91866   2.92111
 Alpha virt. eigenvalues --    2.92678   2.92893   2.93094   2.93395   2.93654
 Alpha virt. eigenvalues --    2.94110   2.94270   2.94469   2.94794   2.95094
 Alpha virt. eigenvalues --    2.95349   2.95667   2.96032   2.96424   2.96588
 Alpha virt. eigenvalues --    2.97036   2.97398   2.97457   2.98017   2.98193
 Alpha virt. eigenvalues --    2.98553   2.98947   2.99210   2.99524   3.00036
 Alpha virt. eigenvalues --    3.00163   3.00380   3.00456   3.00628   3.00772
 Alpha virt. eigenvalues --    3.01157   3.01307   3.01834   3.02067   3.02113
 Alpha virt. eigenvalues --    3.02349   3.02667   3.02783   3.03124   3.03206
 Alpha virt. eigenvalues --    3.03765   3.04098   3.04326   3.04417   3.04733
 Alpha virt. eigenvalues --    3.04821   3.05216   3.05298   3.05502   3.05964
 Alpha virt. eigenvalues --    3.06328   3.06454   3.06696   3.07134   3.07181
 Alpha virt. eigenvalues --    3.07388   3.07580   3.07824   3.08027   3.08434
 Alpha virt. eigenvalues --    3.08647   3.08880   3.09040   3.09442   3.09590
 Alpha virt. eigenvalues --    3.10016   3.10234   3.10457   3.10865   3.11000
 Alpha virt. eigenvalues --    3.11108   3.11682   3.11778   3.12046   3.12453
 Alpha virt. eigenvalues --    3.12878   3.13081   3.13514   3.13588   3.13797
 Alpha virt. eigenvalues --    3.13964   3.14236   3.14388   3.14719   3.15210
 Alpha virt. eigenvalues --    3.15274   3.15487   3.15697   3.15728   3.16252
 Alpha virt. eigenvalues --    3.16445   3.16785   3.16906   3.17199   3.17391
 Alpha virt. eigenvalues --    3.17528   3.17829   3.18174   3.18433   3.18590
 Alpha virt. eigenvalues --    3.18705   3.19186   3.19377   3.19486   3.19657
 Alpha virt. eigenvalues --    3.19731   3.20234   3.20822   3.21127   3.21594
 Alpha virt. eigenvalues --    3.21692   3.21971   3.22185   3.22383   3.22663
 Alpha virt. eigenvalues --    3.22896   3.23041   3.23397   3.23588   3.24233
 Alpha virt. eigenvalues --    3.24511   3.24532   3.24872   3.25054   3.25262
 Alpha virt. eigenvalues --    3.25662   3.25733   3.26109   3.26178   3.26598
 Alpha virt. eigenvalues --    3.26718   3.26878   3.27184   3.27406   3.27695
 Alpha virt. eigenvalues --    3.28144   3.28380   3.28454   3.28671   3.29014
 Alpha virt. eigenvalues --    3.29099   3.29176   3.29725   3.29887   3.29965
 Alpha virt. eigenvalues --    3.30038   3.30454   3.30579   3.30692   3.31159
 Alpha virt. eigenvalues --    3.31205   3.31470   3.31758   3.32074   3.32353
 Alpha virt. eigenvalues --    3.32712   3.33021   3.33241   3.33516   3.33677
 Alpha virt. eigenvalues --    3.33897   3.34289   3.34480   3.34851   3.35005
 Alpha virt. eigenvalues --    3.35276   3.35638   3.35898   3.36139   3.36363
 Alpha virt. eigenvalues --    3.36584   3.36915   3.37387   3.37577   3.37932
 Alpha virt. eigenvalues --    3.38351   3.38529   3.38941   3.39103   3.39254
 Alpha virt. eigenvalues --    3.39449   3.40010   3.40686   3.40903   3.41136
 Alpha virt. eigenvalues --    3.41259   3.41759   3.41877   3.42060   3.42423
 Alpha virt. eigenvalues --    3.42510   3.42724   3.43532   3.43740   3.44046
 Alpha virt. eigenvalues --    3.44438   3.44801   3.44956   3.45437   3.45527
 Alpha virt. eigenvalues --    3.46024   3.46228   3.46503   3.46826   3.46954
 Alpha virt. eigenvalues --    3.47262   3.47885   3.48472   3.48678   3.48860
 Alpha virt. eigenvalues --    3.49602   3.49914   3.50054   3.50083   3.50866
 Alpha virt. eigenvalues --    3.51260   3.51620   3.51956   3.52342   3.52410
 Alpha virt. eigenvalues --    3.52785   3.53203   3.53696   3.53915   3.54114
 Alpha virt. eigenvalues --    3.54602   3.54967   3.55120   3.55249   3.55534
 Alpha virt. eigenvalues --    3.55976   3.56334   3.56632   3.57001   3.57314
 Alpha virt. eigenvalues --    3.57596   3.58106   3.58357   3.58754   3.59053
 Alpha virt. eigenvalues --    3.59316   3.59603   3.59967   3.60208   3.60590
 Alpha virt. eigenvalues --    3.61087   3.61199   3.61477   3.61843   3.62072
 Alpha virt. eigenvalues --    3.62463   3.62641   3.63104   3.63739   3.63948
 Alpha virt. eigenvalues --    3.64535   3.64918   3.65062   3.65394   3.65664
 Alpha virt. eigenvalues --    3.66070   3.66529   3.66561   3.67029   3.67359
 Alpha virt. eigenvalues --    3.67905   3.68206   3.68808   3.69182   3.69376
 Alpha virt. eigenvalues --    3.69699   3.70008   3.70212   3.70739   3.71191
 Alpha virt. eigenvalues --    3.71586   3.72871   3.73079   3.73565   3.73966
 Alpha virt. eigenvalues --    3.74400   3.74925   3.75027   3.75639   3.75767
 Alpha virt. eigenvalues --    3.76376   3.76701   3.77240   3.77576   3.77946
 Alpha virt. eigenvalues --    3.78659   3.79097   3.79325   3.79594   3.79799
 Alpha virt. eigenvalues --    3.80290   3.80935   3.81419   3.81985   3.82502
 Alpha virt. eigenvalues --    3.82762   3.83220   3.83535   3.83603   3.84241
 Alpha virt. eigenvalues --    3.84518   3.85124   3.85428   3.86272   3.86635
 Alpha virt. eigenvalues --    3.86762   3.87486   3.87688   3.88189   3.88393
 Alpha virt. eigenvalues --    3.89062   3.89538   3.90302   3.90706   3.91462
 Alpha virt. eigenvalues --    3.91547   3.92191   3.92320   3.92483   3.93526
 Alpha virt. eigenvalues --    3.94030   3.94337   3.94428   3.94917   3.95478
 Alpha virt. eigenvalues --    3.95857   3.96364   3.96984   3.97427   3.98039
 Alpha virt. eigenvalues --    3.98428   3.99212   3.99715   4.00554   4.00760
 Alpha virt. eigenvalues --    4.00945   4.01868   4.02239   4.03064   4.03444
 Alpha virt. eigenvalues --    4.04016   4.04530   4.04754   4.05311   4.05596
 Alpha virt. eigenvalues --    4.05903   4.06806   4.07108   4.07617   4.07881
 Alpha virt. eigenvalues --    4.08486   4.09553   4.10408   4.10656   4.10908
 Alpha virt. eigenvalues --    4.11770   4.12065   4.12457   4.12820   4.13664
 Alpha virt. eigenvalues --    4.14088   4.14934   4.15260   4.15519   4.15659
 Alpha virt. eigenvalues --    4.16087   4.16420   4.16522   4.17078   4.17343
 Alpha virt. eigenvalues --    4.18082   4.18392   4.19002   4.19436   4.20095
 Alpha virt. eigenvalues --    4.20324   4.20603   4.21265   4.21967   4.22396
 Alpha virt. eigenvalues --    4.23366   4.23582   4.24020   4.24458   4.25213
 Alpha virt. eigenvalues --    4.25585   4.25936   4.26748   4.27015   4.27993
 Alpha virt. eigenvalues --    4.28103   4.28625   4.28908   4.29807   4.30182
 Alpha virt. eigenvalues --    4.30360   4.30558   4.31151   4.31532   4.31983
 Alpha virt. eigenvalues --    4.33018   4.33094   4.33424   4.33552   4.33994
 Alpha virt. eigenvalues --    4.34551   4.35582   4.36107   4.36436   4.36722
 Alpha virt. eigenvalues --    4.37100   4.37514   4.37768   4.39193   4.40170
 Alpha virt. eigenvalues --    4.40341   4.41341   4.41489   4.42227   4.42598
 Alpha virt. eigenvalues --    4.44245   4.45179   4.45450   4.46618   4.47334
 Alpha virt. eigenvalues --    4.47873   4.48624   4.49162   4.49940   4.50237
 Alpha virt. eigenvalues --    4.50639   4.51033   4.51530   4.51940   4.53112
 Alpha virt. eigenvalues --    4.53811   4.54028   4.54633   4.55220   4.55525
 Alpha virt. eigenvalues --    4.55728   4.55938   4.56320   4.56464   4.57144
 Alpha virt. eigenvalues --    4.58190   4.59084   4.59457   4.60338   4.60540
 Alpha virt. eigenvalues --    4.61030   4.61535   4.61962   4.62588   4.63365
 Alpha virt. eigenvalues --    4.63776   4.64098   4.64671   4.65409   4.66108
 Alpha virt. eigenvalues --    4.66464   4.66709   4.67022   4.68039   4.68455
 Alpha virt. eigenvalues --    4.68589   4.69429   4.69639   4.70628   4.71370
 Alpha virt. eigenvalues --    4.71800   4.72676   4.73169   4.74009   4.74164
 Alpha virt. eigenvalues --    4.74179   4.74579   4.74975   4.75195   4.76865
 Alpha virt. eigenvalues --    4.77383   4.77838   4.78085   4.79311   4.79652
 Alpha virt. eigenvalues --    4.80283   4.81439   4.81534   4.82209   4.82980
 Alpha virt. eigenvalues --    4.83172   4.84167   4.84661   4.84764   4.85452
 Alpha virt. eigenvalues --    4.86144   4.86817   4.87703   4.87979   4.88883
 Alpha virt. eigenvalues --    4.90029   4.90456   4.90919   4.91333   4.92293
 Alpha virt. eigenvalues --    4.92783   4.93706   4.94365   4.94810   4.95162
 Alpha virt. eigenvalues --    4.95980   4.96336   4.97000   4.97460   4.98333
 Alpha virt. eigenvalues --    4.98893   5.00551   5.00970   5.01549   5.02069
 Alpha virt. eigenvalues --    5.03552   5.03948   5.04904   5.06941   5.09052
 Alpha virt. eigenvalues --    5.09799   5.09945   5.10890   5.11450   5.12004
 Alpha virt. eigenvalues --    5.12655   5.12820   5.13298   5.14078   5.14502
 Alpha virt. eigenvalues --    5.14769   5.15557   5.16114   5.16292   5.16814
 Alpha virt. eigenvalues --    5.17127   5.17393   5.17915   5.18880   5.20096
 Alpha virt. eigenvalues --    5.20968   5.22643   5.23476   5.24963   5.25278
 Alpha virt. eigenvalues --    5.26137   5.26627   5.27116   5.27279   5.27919
 Alpha virt. eigenvalues --    5.28828   5.29850   5.30252   5.31717   5.33110
 Alpha virt. eigenvalues --    5.33336   5.33802   5.34761   5.35108   5.35606
 Alpha virt. eigenvalues --    5.36298   5.37006   5.37910   5.38776   5.39637
 Alpha virt. eigenvalues --    5.40279   5.41488   5.41912   5.42409   5.43429
 Alpha virt. eigenvalues --    5.44816   5.45449   5.47182   5.48274   5.48865
 Alpha virt. eigenvalues --    5.50289   5.50523   5.51487   5.52473   5.54138
 Alpha virt. eigenvalues --    5.54821   5.55618   5.57129   5.57377   5.58340
 Alpha virt. eigenvalues --    5.60007   5.60876   5.61435   5.62920   5.63831
 Alpha virt. eigenvalues --    5.64682   5.67151   5.67343   5.69774   5.70661
 Alpha virt. eigenvalues --    5.74604   5.75188   5.76154   5.81345   5.83773
 Alpha virt. eigenvalues --    5.86438   5.87320   5.88134   5.89052   5.89474
 Alpha virt. eigenvalues --    5.89921   5.91374   5.92981   5.94849   5.96494
 Alpha virt. eigenvalues --    5.97482   5.98251   5.99682   6.00619   6.01374
 Alpha virt. eigenvalues --    6.04044   6.05012   6.07554   6.08505   6.08999
 Alpha virt. eigenvalues --    6.10542   6.11324   6.12514   6.18576   6.19369
 Alpha virt. eigenvalues --    6.21270   6.21369   6.25404   6.27754   6.29275
 Alpha virt. eigenvalues --    6.32587   6.34690   6.40148   6.40556   6.42516
 Alpha virt. eigenvalues --    6.44203   6.47064   6.60706   6.63162   6.69373
 Alpha virt. eigenvalues --    6.73056   6.78283   6.79732   6.88553   6.89289
 Alpha virt. eigenvalues --    6.91276   7.01283   7.07064   7.09826   7.11350
 Alpha virt. eigenvalues --    7.11507   7.18740   7.21910  22.41161  22.43357
 Alpha virt. eigenvalues --   22.43552  22.46298  22.46813  22.47556  22.52034
 Alpha virt. eigenvalues --   22.53264  22.54054  22.62810  22.63237  22.68402
 Alpha virt. eigenvalues --   22.69444  22.71976  22.73486  22.74451  22.80145
 Alpha virt. eigenvalues --   22.81953  22.84923  22.86043  22.87434  22.93095
 Alpha virt. eigenvalues --   22.95078  22.99481  23.01505  23.02762  23.15515
 Alpha virt. eigenvalues --   23.18058  23.19910  23.21751  23.24181  23.32128
 Alpha virt. eigenvalues --   23.34872  23.44254  23.47075  23.52722  23.55919
 Alpha virt. eigenvalues --   23.58258  23.64715  23.67514  23.73374  23.76454
 Alpha virt. eigenvalues --   32.37082  32.37470  32.66000  32.75762  32.88764
 Alpha virt. eigenvalues --   32.93015  32.95534  33.24469  43.86747  43.88465
 Alpha virt. eigenvalues --   43.91442  43.93887
  Beta  occ. eigenvalues -- -256.51070 -30.25631 -26.09067 -26.08834 -26.07897
  Beta  occ. eigenvalues --  -19.33415 -19.32622 -19.25162 -19.23869 -14.54151
  Beta  occ. eigenvalues --  -14.54108 -14.49008 -14.48669 -14.48559 -14.48388
  Beta  occ. eigenvalues --  -14.48183 -14.47991 -10.42225 -10.41617 -10.37982
  Beta  occ. eigenvalues --  -10.37774 -10.35698 -10.35493 -10.35491 -10.35477
  Beta  occ. eigenvalues --  -10.35376 -10.35270 -10.35260 -10.35186 -10.35148
  Beta  occ. eigenvalues --  -10.34988 -10.32953 -10.32696 -10.32572 -10.32373
  Beta  occ. eigenvalues --  -10.32341 -10.32320 -10.32285 -10.32081 -10.32013
  Beta  occ. eigenvalues --  -10.31940 -10.31856 -10.31845 -10.31580 -10.31503
  Beta  occ. eigenvalues --  -10.31409 -10.31166 -10.31005 -10.30994 -10.30680
  Beta  occ. eigenvalues --  -10.30675 -10.30559 -10.30367 -10.30344 -10.30064
  Beta  occ. eigenvalues --  -10.30055 -10.29568 -10.28888 -10.28488  -3.56041
  Beta  occ. eigenvalues --   -2.32339  -2.31853  -2.27984  -1.24147  -1.24034
  Beta  occ. eigenvalues --   -1.15855  -1.15841  -1.10058  -1.09002  -1.08968
  Beta  occ. eigenvalues --   -1.07889  -1.07767  -1.06734  -1.00242  -1.00189
  Beta  occ. eigenvalues --   -0.94175  -0.93857  -0.93345  -0.93172  -0.92445
  Beta  occ. eigenvalues --   -0.91382  -0.91086  -0.90370  -0.90336  -0.88735
  Beta  occ. eigenvalues --   -0.87970  -0.87031  -0.86209  -0.85675  -0.83616
  Beta  occ. eigenvalues --   -0.82060  -0.81784  -0.81532  -0.81420  -0.81298
  Beta  occ. eigenvalues --   -0.79508  -0.78134  -0.77421  -0.76063  -0.75944
  Beta  occ. eigenvalues --   -0.74519  -0.74363  -0.74154  -0.73987  -0.72122
  Beta  occ. eigenvalues --   -0.71723  -0.71675  -0.71390  -0.69303  -0.68317
  Beta  occ. eigenvalues --   -0.66080  -0.65993  -0.65774  -0.64959  -0.64246
  Beta  occ. eigenvalues --   -0.63862  -0.62709  -0.62477  -0.62049  -0.61527
  Beta  occ. eigenvalues --   -0.60908  -0.60041  -0.58879  -0.58577  -0.57977
  Beta  occ. eigenvalues --   -0.57817  -0.57530  -0.57209  -0.57112  -0.57048
  Beta  occ. eigenvalues --   -0.56645  -0.55873  -0.55795  -0.55487  -0.54795
  Beta  occ. eigenvalues --   -0.54561  -0.54300  -0.54243  -0.53885  -0.53656
  Beta  occ. eigenvalues --   -0.53531  -0.53313  -0.53079  -0.52950  -0.52551
  Beta  occ. eigenvalues --   -0.52383  -0.52302  -0.52026  -0.51987  -0.51842
  Beta  occ. eigenvalues --   -0.51691  -0.51642  -0.51451  -0.51055  -0.50935
  Beta  occ. eigenvalues --   -0.50768  -0.50680  -0.50336  -0.50236  -0.49965
  Beta  occ. eigenvalues --   -0.49856  -0.49646  -0.49136  -0.48985  -0.48722
  Beta  occ. eigenvalues --   -0.48570  -0.48184  -0.48025  -0.47948  -0.47511
  Beta  occ. eigenvalues --   -0.47289  -0.47164  -0.46681  -0.46311  -0.46020
  Beta  occ. eigenvalues --   -0.45476  -0.44820  -0.44305  -0.44031  -0.43771
  Beta  occ. eigenvalues --   -0.43359  -0.43080  -0.42785  -0.42756  -0.42165
  Beta  occ. eigenvalues --   -0.41767  -0.40865  -0.40659  -0.39954  -0.38971
  Beta  occ. eigenvalues --   -0.38487  -0.38047  -0.36299  -0.35476  -0.35399
  Beta  occ. eigenvalues --   -0.35008  -0.34686  -0.34031  -0.33792  -0.33455
  Beta  occ. eigenvalues --   -0.33222  -0.29805  -0.29154
  Beta virt. eigenvalues --   -0.19268  -0.19057  -0.14951  -0.14711  -0.13426
  Beta virt. eigenvalues --   -0.12586  -0.11152  -0.10027  -0.08885  -0.08395
  Beta virt. eigenvalues --   -0.07957  -0.07289  -0.06835  -0.06454  -0.05827
  Beta virt. eigenvalues --   -0.05453  -0.05149  -0.04960  -0.04601  -0.04046
  Beta virt. eigenvalues --   -0.03838  -0.03518  -0.03163  -0.02741  -0.02495
  Beta virt. eigenvalues --   -0.02048  -0.01881  -0.01530  -0.01406  -0.01237
  Beta virt. eigenvalues --   -0.00749  -0.00496  -0.00271   0.00072   0.00372
  Beta virt. eigenvalues --    0.00448   0.00991   0.01327   0.01377   0.01690
  Beta virt. eigenvalues --    0.01887   0.01913   0.02346   0.02716   0.03029
  Beta virt. eigenvalues --    0.03097   0.03380   0.03586   0.03789   0.03998
  Beta virt. eigenvalues --    0.04172   0.04447   0.04575   0.04725   0.04829
  Beta virt. eigenvalues --    0.04981   0.05178   0.05441   0.05605   0.05646
  Beta virt. eigenvalues --    0.05805   0.06037   0.06410   0.06489   0.06652
  Beta virt. eigenvalues --    0.06758   0.06920   0.07081   0.07352   0.07449
  Beta virt. eigenvalues --    0.07659   0.07968   0.07996   0.08220   0.08427
  Beta virt. eigenvalues --    0.08523   0.08911   0.09253   0.09549   0.09777
  Beta virt. eigenvalues --    0.09859   0.10360   0.10623   0.10716   0.11071
  Beta virt. eigenvalues --    0.11356   0.11407   0.11449   0.11577   0.11775
  Beta virt. eigenvalues --    0.12135   0.12455   0.12557   0.12644   0.12828
  Beta virt. eigenvalues --    0.13064   0.13343   0.13551   0.13765   0.13944
  Beta virt. eigenvalues --    0.14036   0.14536   0.14626   0.14729   0.14900
  Beta virt. eigenvalues --    0.15145   0.15351   0.15617   0.15752   0.15955
  Beta virt. eigenvalues --    0.16132   0.16297   0.16481   0.16556   0.16801
  Beta virt. eigenvalues --    0.16984   0.17293   0.17439   0.17623   0.17833
  Beta virt. eigenvalues --    0.18030   0.18299   0.18374   0.18636   0.18887
  Beta virt. eigenvalues --    0.19338   0.19406   0.19477   0.19909   0.20236
  Beta virt. eigenvalues --    0.20357   0.20466   0.20804   0.20939   0.21197
  Beta virt. eigenvalues --    0.21340   0.21620   0.21882   0.22226   0.22374
  Beta virt. eigenvalues --    0.22561   0.22895   0.23005   0.23244   0.23406
  Beta virt. eigenvalues --    0.23898   0.23972   0.24282   0.24412   0.24499
  Beta virt. eigenvalues --    0.24540   0.25008   0.25062   0.25632   0.25770
  Beta virt. eigenvalues --    0.25863   0.26047   0.26242   0.26388   0.26766
  Beta virt. eigenvalues --    0.26951   0.27297   0.27633   0.27762   0.28006
  Beta virt. eigenvalues --    0.28043   0.28298   0.28427   0.28726   0.28932
  Beta virt. eigenvalues --    0.28992   0.29151   0.29404   0.29620   0.29995
  Beta virt. eigenvalues --    0.30238   0.30444   0.30560   0.30688   0.30919
  Beta virt. eigenvalues --    0.31133   0.31279   0.31400   0.31582   0.31659
  Beta virt. eigenvalues --    0.31919   0.31973   0.32116   0.32233   0.32619
  Beta virt. eigenvalues --    0.32832   0.32889   0.33023   0.33194   0.33340
  Beta virt. eigenvalues --    0.33552   0.33694   0.33715   0.34012   0.34221
  Beta virt. eigenvalues --    0.34425   0.34471   0.34745   0.35184   0.35271
  Beta virt. eigenvalues --    0.35415   0.35452   0.35763   0.35796   0.36125
  Beta virt. eigenvalues --    0.36203   0.36261   0.36514   0.36719   0.36843
  Beta virt. eigenvalues --    0.36964   0.37208   0.37403   0.37568   0.37784
  Beta virt. eigenvalues --    0.37952   0.38215   0.38341   0.38532   0.38606
  Beta virt. eigenvalues --    0.38818   0.38911   0.39049   0.39193   0.39269
  Beta virt. eigenvalues --    0.39526   0.39837   0.39901   0.40168   0.40391
  Beta virt. eigenvalues --    0.40524   0.40689   0.40781   0.40833   0.41016
  Beta virt. eigenvalues --    0.41361   0.41455   0.41730   0.41770   0.41944
  Beta virt. eigenvalues --    0.42136   0.42295   0.42435   0.42484   0.42882
  Beta virt. eigenvalues --    0.43033   0.43121   0.43190   0.43477   0.43728
  Beta virt. eigenvalues --    0.43811   0.44032   0.44197   0.44332   0.44597
  Beta virt. eigenvalues --    0.44746   0.44874   0.45039   0.45273   0.45394
  Beta virt. eigenvalues --    0.45648   0.45913   0.46041   0.46238   0.46531
  Beta virt. eigenvalues --    0.46768   0.46889   0.47174   0.47295   0.47590
  Beta virt. eigenvalues --    0.47613   0.47972   0.48171   0.48487   0.48835
[...]
  1747. RY*(   5) H  76                  0.00000     2.86902   
  1748. RY*(   1) H  77                  0.00044     1.58662   
  1749. RY*(   2) H  77                  0.00008     1.88337   
  1750. RY*(   3) H  77                  0.00008     2.59543   
  1751. RY*(   4) H  77                  0.00004     1.96193   
  1752. RY*(   5) H  77                  0.00000     2.78069   
  1753. RY*(   1) H  78                  0.00103     0.55432   
  1754. RY*(   2) H  78                  0.00014     2.13535   
  1755. RY*(   3) H  78                  0.00013     2.16502   
  1756. RY*(   4) H  78                  0.00006     2.95991   
  1757. RY*(   5) H  78                  0.00000     3.15775   
  1758. RY*(   1) H  79                  0.00074     0.54800   
  1759. RY*(   2) H  79                  0.00013     2.04066   
  1760. RY*(   3) H  79                  0.00012     2.16584   
  1761. RY*(   4) H  79                  0.00006     2.95193   
  1762. RY*(   5) H  79                  0.00001     3.10717   
  1763. RY*(   1) H  80                  0.00034     0.96689   
  1764. RY*(   2) H  80                  0.00008     1.62986   
  1765. RY*(   3) H  80                  0.00003     2.09048   
  1766. RY*(   4) H  80                  0.00001     2.48933   
  1767. RY*(   5) H  80                  0.00001     2.37992   
  1768. RY*(   1) H  81                  0.00034     1.00246   
  1769. RY*(   2) H  81                  0.00009     1.81849   
  1770. RY*(   3) H  81                  0.00004     1.79795   
  1771. RY*(   4) H  81                  0.00004     2.00879   
  1772. RY*(   5) H  81                  0.00000     2.91958   
  1773. RY*(   1) H  82                  0.00028     1.06168   
  1774. RY*(   2) H  82                  0.00009     1.77826   
  1775. RY*(   3) H  82                  0.00003     2.07520   
  1776. RY*(   4) H  82                  0.00001     2.24667   
  1777. RY*(   5) H  82                  0.00002     2.41575   
  1778. RY*(   1) H  83                  0.00022     1.22302   
  1779. RY*(   2) H  83                  0.00009     1.77297   
  1780. RY*(   3) H  83                  0.00003     2.08353   
  1781. RY*(   4) H  83                  0.00001     2.24725   
  1782. RY*(   5) H  83                  0.00001     2.28104   
  1783. RY*(   1) H  84                  0.00034     0.96908   
  1784. RY*(   2) H  84                  0.00008     1.64753   
  1785. RY*(   3) H  84                  0.00004     2.07538   
  1786. RY*(   4) H  84                  0.00001     2.48269   
  1787. RY*(   5) H  84                  0.00001     2.33602   
  1788. RY*(   1) H  85                  0.00032     0.99055   
  1789. RY*(   2) H  85                  0.00008     1.77422   
  1790. RY*(   3) H  85                  0.00004     1.83041   
  1791. RY*(   4) H  85                  0.00003     2.04875   
  1792. RY*(   5) H  85                  0.00000     2.86468   
  1793. RY*(   1) H  86                  0.00074     0.57668   
  1794. RY*(   2) H  86                  0.00013     2.03976   
  1795. RY*(   3) H  86                  0.00013     2.17679   
  1796. RY*(   4) H  86                  0.00005     2.93731   
  1797. RY*(   5) H  86                  0.00000     3.09211   
  1798. RY*(   1) H  87                  0.00066     0.55176   
  1799. RY*(   2) H  87                  0.00013     2.02606   
  1800. RY*(   3) H  87                  0.00012     2.17380   
  1801. RY*(   4) H  87                  0.00005     2.95736   
  1802. RY*(   5) H  87                  0.00000     3.10446   
  1803. RY*(   1) H  88                  0.00030     1.08213   
  1804. RY*(   2) H  88                  0.00010     1.42471   
  1805. RY*(   3) H  88                  0.00005     2.14956   
  1806. RY*(   4) H  88                  0.00003     2.30686   
  1807. RY*(   5) H  88                  0.00001     2.98480   
  1808. RY*(   1) H  89                  0.00023     1.17362   
  1809. RY*(   2) H  89                  0.00009     1.52898   
  1810. RY*(   3) H  89                  0.00005     2.10140   
  1811. RY*(   4) H  89                  0.00003     2.36671   
  1812. RY*(   5) H  89                  0.00000     2.95174   
  1813. RY*(   1) H  90                  0.00026     1.21895   
  1814. RY*(   2) H  90                  0.00008     1.50468   
  1815. RY*(   3) H  90                  0.00005     2.20808   
  1816. RY*(   4) H  90                  0.00004     2.33748   
  1817. RY*(   5) H  90                  0.00000     2.99103   
  1818. RY*(   1) H  91                  0.00027     1.07531   
  1819. RY*(   2) H  91                  0.00009     1.70029   
  1820. RY*(   3) H  91                  0.00003     1.99094   
  1821. RY*(   4) H  91                  0.00003     2.07509   
  1822. RY*(   5) H  91                  0.00001     2.73757   
  1823. RY*(   1) H  92                  0.00031     1.02524   
  1824. RY*(   2) H  92                  0.00008     1.58416   
  1825. RY*(   3) H  92                  0.00004     2.11894   
  1826. RY*(   4) H  92                  0.00002     2.16620   
  1827. RY*(   5) H  92                  0.00001     2.68172   
  1828. RY*(   1) H  93                  0.00023     1.17131   
  1829. RY*(   2) H  93                  0.00008     1.68665   
  1830. RY*(   3) H  93                  0.00003     2.07507   
  1831. RY*(   4) H  93                  0.00000     2.85497   
  1832. RY*(   5) H  93                  0.00001     1.81777   
  1833. RY*(   1) H  94                  0.00016     1.99512   
  1834. RY*(   2) H  94                  0.00005     0.62106   
  1835. RY*(   3) H  94                  0.00005     2.15159   
  1836. RY*(   4) H  94                  0.00002     2.55110   
  1837. RY*(   5) H  94                  0.00002     2.46593   
  1838. RY*(   1) H  95                  0.00021     1.26775   
  1839. RY*(   2) H  95                  0.00008     1.25848   
  1840. RY*(   3) H  95                  0.00005     2.16541   
  1841. RY*(   4) H  95                  0.00002     2.28000   
  1842. RY*(   5) H  95                  0.00001     2.92081   
  1843. RY*(   1) H  96                  0.00037     1.19890   
  1844. RY*(   2) H  96                  0.00006     1.43746   
  1845. RY*(   3) H  96                  0.00006     2.15908   
  1846. RY*(   4) H  96                  0.00003     2.31289   
  1847. RY*(   5) H  96                  0.00000     2.95446   
  1848. RY*(   1) H  97                  0.00041     1.32240   
  1849. RY*(   2) H  97                  0.00009     1.37282   
  1850. RY*(   3) H  97                  0.00005     2.64735   
  1851. RY*(   4) H  97                  0.00001     2.19487   
  1852. RY*(   5) H  97                  0.00000     3.01711   
  1853. RY*(   1) H  98                  0.00033     1.22406   
  1854. RY*(   2) H  98                  0.00006     1.43246   
  1855. RY*(   3) H  98                  0.00006     2.15243   
  1856. RY*(   4) H  98                  0.00003     2.26664   
  1857. RY*(   5) H  98                  0.00001     3.02018   
  1858. RY*(   1) H  99                  0.00018     1.92618   
  1859. RY*(   2) H  99                  0.00006     1.52301   
  1860. RY*(   3) H  99                  0.00004     1.28764   
  1861. RY*(   4) H  99                  0.00002     2.24356   
  1862. RY*(   5) H  99                  0.00001     2.81841   
  1863. RY*(   1) H 100                  0.00022     1.22337   
  1864. RY*(   2) H 100                  0.00007     1.31413   
  1865. RY*(   3) H 100                  0.00004     2.14908   
  1866. RY*(   4) H 100                  0.00001     2.68694   
  1867. RY*(   5) H 100                  0.00002     2.55602   
  1868. RY*(   1) H 101                  0.00037     1.30904   
  1869. RY*(   2) H 101                  0.00009     1.38644   
  1870. RY*(   3) H 101                  0.00006     2.61807   
  1871. RY*(   4) H 101                  0.00001     2.30873   
  1872. RY*(   5) H 101                  0.00001     2.89885   
  1901. BD*(   1)Fe  13 - N  37          0.07563     0.15438   
  1902. BD*(   1)Fe  13 - N  45          0.06948     0.15619   
  1903. BD*(   1) C  14 - C  19          0.01039     0.45245   
  1904. BD*(   1) C  14 - C  49          0.01033     0.45588   
  1905. BD*(   2) C  14 - C  49          0.19730    -0.06064  1920(v),1979(v),1917(r)
                                                    551(g),1465(g)
  1906. BD*(   1) C  14 - H  78          0.00648     0.34241   
  1907. BD*(   1) C  15 - C  22          0.01037     0.45917   
  1908. BD*(   1) C  15 - C  30          0.01010     0.48739   
  1909. BD*(   2) C  15 - C  30          0.19076    -0.05244  1946(v),199(v),1943(v)
                                                    971(g),578(g),577(g),1913(r)
  1910. BD*(   1) C  15 - H  79          0.00652     0.34858   
  1911. BD*(   1) C  16 - C  33          0.01008     0.47812   
  1912. BD*(   1) C  16 - C  38          0.01029     0.44407   
  1913. BD*(   2) C  16 - C  38          0.19658    -0.06021  1943(v),1963(v),1960(v)
                                                    1917(r),603(g),1179(g)
                                                    1909(r)
  1914. BD*(   1) C  16 - H  87          0.00597     0.35230   
  1915. BD*(   1) C  17 - C  41          0.00944     0.44914   
  1916. BD*(   1) C  17 - C  46          0.01046     0.45845   
  1917. BD*(   2) C  17 - C  46          0.19899    -0.05881  1960(v),1979(v),1905(r)
                                                    1913(r),1387(g),630(g)
                                                    629(g),1898(r)
  1918. BD*(   1) C  17 - H  86          0.00583     0.35203   
  1919. BD*(   1) N  18 - C  19          0.01321     0.39434   
  1920. BD*(   2) N  18 - C  19          0.31083    -0.09332  1905(v),1924(v),199(v)
                                                    683(g),194(r),657(g),197(r)
                                                    1883(r),551(v),1897(r)
  1921. BD*(   1) N  18 - C  22          0.01446     0.35798   
  1922. BD*(   1) C  19 - C  20          0.01699     0.40428   
  1923. BD*(   1) C  20 - C  21          0.01088     0.55084   
  1924. BD*(   2) C  20 - C  21          0.12205    -0.02035  1920(v),199(v),1931(v)
                                                    1928(v)
  1925. BD*(   1) C  20 - C  24          0.01271     0.33201   
  1926. BD*(   1) C  21 - C  22          0.01559     0.42302   
  1927. BD*(   1) C  21 - C  23          0.00883     0.29110   
  1928. BD*(   1) C  23 - H  80          0.00419     0.31925   
  1929. BD*(   1) C  23 - H  81          0.00318     0.32475   
  1930. BD*(   1) C  23 - H  82          0.00312     0.32107   
  1931. BD*(   1) C  24 - C  25          0.00769     0.29032   
  1932. BD*(   1) C  24 - H  70          0.00793     0.31846   
  1933. BD*(   1) C  24 - H  71          0.00746     0.31885   
  1934. BD*(   1) C  25 - C  26          0.04009     0.28798   
  1935. BD*(   1) C  25 - H  68          0.00583     0.31422   
  1936. BD*(   1) C  25 - H  69          0.00598     0.30994   
  1937. BD*(   1) C  26 - O  27          0.03626     0.43150   
  1938. BD*(   1) C  26 - O  28          0.02115     0.48686   
  1939. BD*(   2) C  26 - O  28          0.08341    -0.05929   
  1940. BD*(   1) O  27 - H  72          0.00692     0.30156   
  1941. BD*(   1) N  29 - C  30          0.01521     0.33191   
  1942. BD*(   1) N  29 - C  33          0.01330     0.37997   
  1943. BD*(   2) N  29 - C  33          0.31715    -0.10166  1913(v),1946(v),1909(v)
                                                    197(r),1047(g),943(g)
                                                    1883(r),1884(r)
  1944. BD*(   1) C  30 - C  31          0.01594     0.41693   
  1945. BD*(   1) C  31 - C  32          0.01183     0.52267   
  1946. BD*(   2) C  31 - C  32          0.12898    -0.02366  1909(v),1943(v),205(v)
                                                    1950(v),1954(v),1953(v)
                                                    1945(g)
  1947. BD*(   1) C  31 - C  34          0.00831     0.29404   
  1948. BD*(   1) C  32 - C  33          0.01750     0.39606   
  1949. BD*(   1) C  32 - C  35          0.01172     0.48172   
  1950. BD*(   1) C  34 - H  88          0.00427     0.32298   
  1951. BD*(   1) C  34 - H  89          0.00298     0.32113   
  1952. BD*(   1) C  34 - H  90          0.00271     0.32924   
  1953. BD*(   1) C  35 - C  36          0.00483     0.44077   
  1954. BD*(   1) C  35 - H  97          0.01107     0.35935   
  1955. BD*(   1) C  36 - H  94          0.00195     0.32648   
  1956. BD*(   1) C  36 - H  95          0.00326     0.32662   
  1957. BD*(   1) C  36 - H  96          0.00439     0.32367   
  1958. BD*(   1) N  37 - C  38          0.01557     0.36783   
  1959. BD*(   1) N  37 - C  41          0.01447     0.38311   
  1960. BD*(   2) N  37 - C  41          0.30457    -0.09527  1917(v),1913(v),1963(v)
                                                    1255(g),196(v),197(v)
                                                    1151(g),1897(r),206(r)
  1961. BD*(   1) C  38 - C  39          0.01514     0.42067   
  1962. BD*(   1) C  39 - C  40          0.01134     0.49779   
  1963. BD*(   2) C  39 - C  40          0.12306    -0.02309  1913(v),1960(v),206(v)
                                                    1968(v),1971(v),1970(v)
                                                    1962(g)
  1964. BD*(   1) C  39 - C  42          0.00824     0.29015   
  1965. BD*(   1) C  40 - C  41          0.01630     0.37070   
  1966. BD*(   1) C  40 - C  43          0.01102     0.44463   
  1967. BD*(   1) C  42 - H  91          0.00327     0.32849   
  1968. BD*(   1) C  42 - H  92          0.00369     0.32344   
  1969. BD*(   1) C  42 - H  93          0.00206     0.33118   
  1970. BD*(   1) C  43 - C  44          0.00426     0.41546   
  1971. BD*(   1) C  43 - H 101          0.00954     0.36372   
  1972. BD*(   1) C  44 - H  98          0.00329     0.33178   
  1973. BD*(   1) C  44 - H  99          0.00177     0.32996   
  1974. BD*(   1) C  44 - H 100          0.00328     0.33139   
  1975. BD*(   1) N  45 - C  46          0.01524     0.38102   
  1976. BD*(   1) N  45 - C  49          0.01487     0.38348   
  1977. BD*(   1) C  46 - C  47          0.01580     0.41972   
  1978. BD*(   1) C  47 - C  48          0.00996     0.52132   
  1979. BD*(   2) C  47 - C  48          0.12042    -0.02826  1917(v),1905(v),1986(v)
                                                    1984(v)
  1980. BD*(   1) C  47 - C  50          0.00874     0.26700   
  1981. BD*(   1) C  48 - C  49          0.01635     0.39959   
  1982. BD*(   1) C  48 - C  51          0.01281     0.28287   
  1983. BD*(   1) C  50 - H  83          0.00239     0.32644   
  1984. BD*(   1) C  50 - H  84          0.00379     0.32440   
  1985. BD*(   1) C  50 - H  85          0.00272     0.32767   
  1986. BD*(   1) C  51 - C  52          0.00749     0.26593   
  1987. BD*(   1) C  51 - H  76          0.00760     0.30530   
  1988. BD*(   1) C  51 - H  77          0.00736     0.32562   
  1989. BD*(   1) C  52 - C  53          0.03937     0.26583   
  1990. BD*(   1) C  52 - H  74          0.00678     0.31326   
  1991. BD*(   1) C  52 - H  75          0.00541     0.32748   
  1992. BD*(   1) C  53 - O  54          0.03566     0.43864   
  1993. BD*(   1) C  53 - O  55          0.03050     0.43986   
  1994. BD*(   2) C  53 - O  55          0.09285    -0.00323   
  1995. BD*(   1) O  54 - H  73          0.00753     0.30067   
       -------------------------------
              Total Lewis  154.65023  ( 97.0230%)
        Valence non-Lewis    4.43155  (  2.7802%)
        Rydberg non-Lewis    0.31369  (  0.1968%)
       -------------------------------
            Total unit  3  159.39546  (100.0000%)
           Charge unit  3    2.60454
 1\1\GINC-NODE705\SP\UPBE1PBE\def2TZVP\C42H46Fe1N8O4(1+,6)\ZHARTOVSKA\0
 9-Apr-2023\0\\# PBE1PBE/def2TZVP empiricaldispersion=GD3BJ scf=maxcycl
 e=999 geom=check pop=nbo\\1f1c_III_H\\1,6\C,0,11.882,8.838,17.771\C,0,
 10.399,8.933,17.620001\N,0,9.677,8.072,16.820999\C,0,9.508,9.836,18.09
 7\C,0,8.41,8.447,16.806999\N,0,8.276,9.52,17.573999\C,0,1.847,12.055,2
 1.094999\C,0,3.134,12.163,20.323\N,0,3.846,13.341,20.215\C,0,3.835,11.
 242,19.618999\C,0,4.926,13.137,19.476\N,0,4.951,11.869,19.099001\Fe,0,
 6.67,10.706,18.398001\C,0,4.774,9.681,15.772\C,0,8.04,13.22,16.379999\
 C,0,8.458,11.964,21.009001\C,0,5.729,8.005,20.201\N,0,6.402,11.35,16.5
 32\C,0,5.566,10.816,15.589\C,0,5.733,11.515,14.343\C,0,6.629,12.488,14
 .508\C,0,7.079,12.361,15.849\C,0,6.96,13.641,13.574\C,0,5.003,11.243,1
 3.071\C,0,5.772,10.159,12.361\C,0,5.258,9.935,10.968\O,0,4.258,10.58,1
 0.599\O,0,5.85,9.116,10.244\N,0,7.929,12.246,18.652\C,0,8.415,13.173,1
 7.700001\C,0,9.241,14.167,18.299999\C,0,9.25,13.897,19.621\C,0,8.501,1
 2.678,19.829\C,0,9.99,15.298,17.615\C,0,9.85,14.69,20.599001\C,0,9.419
 ,16.006001,20.853001\N,0,7.04,10.093,20.187\C,0,7.82,10.721,21.143999\
 C,0,7.872,9.963,22.348\C,0,7.064,8.877,22.173\C,0,6.584,8.945,20.79000
 1\C,0,8.729,10.263,23.576\C,0,6.886,7.832,23.117001\C,0,6.353,8.081,24
 .417999\N,0,5.453,9.201,18.083\C,0,5.133,8.184,18.954\C,0,4.189,7.286,
 18.382\C,0,3.924,7.757,17.146999\C,0,4.73,8.931,16.945\C,0,3.746,5.925
 ,18.966\C,0,2.888,7.211,16.159\C,0,1.501,7.813,16.379\C,0,0.478,7.338,
 15.351\O,0,0.599,7.685,14.162\O,0,-0.455,6.605,15.734\H,0,1.99453847,1
 2.42540573,22.08794008\H,0,1.0893189,12.63247005,20.60781557\H,0,1.541
 92868,11.03032305,21.13822678\H,0,3.57155472,10.21312682,19.48893533\H
 ,0,3.58652074,14.21289656,20.63029135\H,0,5.65792574,13.87608143,19.22
 511487\H,0,7.62272352,7.96460959,16.26626317\H,0,9.7239342,10.64748657
 ,18.76014551\H,0,10.05321831,7.28678813,16.32916356\H,0,12.34045738,9.
 7041569,17.34147812\H,0,12.13177001,8.78034622,18.80984117\H,0,12.2361
 137,7.96144401,17.26984824\H,0,6.80358323,10.43874735,12.3112259\H,0,5
 .68379594,9.24835231,12.91583406\H,0,4.97348346,12.12680636,12.4685756
 6\H,0,4.00868579,10.90916721,13.2826481\H,0,4.36860184,11.40772614,10.
 12546365\H,0,1.47311488,7.79619125,13.78100172\H,0,1.57556199,8.878947
 98,16.32336355\H,0,1.15892417,7.54169184,17.35587052\H,0,3.2083135,7.4
 3434849,15.16279986\H,0,2.82656578,6.14891555,16.27346599\H,0,4.158702
 91,9.36562958,14.95539056\H,0,8.50103382,13.94041126,15.73707176\H,0,7
 .89034695,13.44619808,13.08266837\H,0,6.18495965,13.74180143,12.843211
 71\H,0,7.0376533,14.5464892,14.1387648\H,0,4.48079656,5.57980095,19.66
 300189\H,0,2.80677973,6.03996044,19.46554918\H,0,3.64378814,5.21318215
 ,18.17368183\H,0,5.52253433,7.10197729,20.73655756\H,0,8.9379634,12.38
 13068,21.86946028\H,0,10.92595673,14.9338287,17.2458601\H,0,9.40562484
 ,15.67045267,16.79971803\H,0,10.16579079,16.08605794,18.31711273\H,0,9
 .65227789,10.70670878,23.26683911\H,0,8.20600659,10.93939969,24.219320
 57\H,0,8.92914224,9.35307592,24.10219506\H,0,8.7271232,16.00343919,21.
 66921172\H,0,10.26228496,16.61565928,21.10217415\H,0,8.9400292,16.3990
 7335,19.98065869\H,0,10.65940565,14.28747474,21.17148323\H,0,6.7874819
 3,8.973911,24.81654059\H,0,5.29164065,8.19953513,24.35192511\H,0,6.580
 45187,7.2561523,25.06048785\H,0,7.1579653,6.83299064,22.84697292\\Vers
 ion=ES64L-G16RevA.03\State=6-A\HF=-3628.6534418\S2=8.820298\S2-1=0.\S2
 A=8.751336\RMSD=3.294e-09\Dipole=2.7987882,2.6722031,2.3701009\Quadrup
 ole=-18.615301,10.9212467,7.6940543,-20.3284635,-6.2681463,-13.5043698
 \PG=C01 [X(C42H46Fe1N8O4)]\\@


 NEVER TEACH A PIG TO SING.
 IT WASTES YOUR TIME AND ANNOYS THE PIG.
     -- SEEN ON A GREETING CARD
 Job cpu time:       4 days  8 hours 45 minutes 58.6 seconds.
 Elapsed time:       1 days  2 hours 15 minutes 53.1 seconds.
 File lengths (MBytes):  RWF=   3654 Int=      0 D2E=      0 Chk=    305 Scr=      1
 Normal termination of Gaussian 16 at Sun Apr  9 12:53:49 2023.
