 Entering Gaussian System, Link 0=g16
 Input=/net/work/kleich/bench/splitthejobs/1f1f/1f1f12/1f1f16/1f1f16.com
 Output=/net/work/kleich/bench/splitthejobs/1f1f/1f1f12/1f1f16/1f1f16.log
 Initial command:
 /afs/math/software/gaussian/g16.A03/g16/l1.exe "/scratch/kleich_gaussian.Hn01iBA/Gau-3474.inp" -scrdir="/scratch/kleich_gaussian.Hn01iBA/"
 Entering Link 1 = /afs/math/software/gaussian/g16.A03/g16/l1.exe PID=      3475.
  
 Copyright (c) 1988,1990,1992,1993,1995,1998,2003,2009,2016,
            Gaussian, Inc.  All Rights Reserved.
  
 This is part of the Gaussian(R) 16 program.  It is based on
 the Gaussian(R) 09 system (copyright 2009, Gaussian, Inc.),
 the Gaussian(R) 03 system (copyright 2003, Gaussian, Inc.),
 the Gaussian(R) 98 system (copyright 1998, Gaussian, Inc.),
 the Gaussian(R) 94 system (copyright 1995, Gaussian, Inc.),
 the Gaussian 92(TM) system (copyright 1992, Gaussian, Inc.),
 the Gaussian 90(TM) system (copyright 1990, Gaussian, Inc.),
 the Gaussian 88(TM) system (copyright 1988, Gaussian, Inc.),
 the Gaussian 86(TM) system (copyright 1986, Carnegie Mellon
 University), and the Gaussian 82(TM) system (copyright 1983,
 Carnegie Mellon University). Gaussian is a federally registered
 trademark of Gaussian, Inc.
  
 This software contains proprietary and confidential information,
 including trade secrets, belonging to Gaussian, Inc.
  
 This software is provided under written license and may be
 used, copied, transmitted, or stored only in accord with that
 written license.
  
 The following legend is applicable only to US Government
 contracts under FAR:
  
                    RESTRICTED RIGHTS LEGEND
  
 Use, reproduction and disclosure by the US Government is
 subject to restrictions as set forth in subparagraphs (a)
 and (c) of the Commercial Computer Software - Restricted
 Rights clause in FAR 52.227-19.
  
 Gaussian, Inc.
 340 Quinnipiac St., Bldg. 40, Wallingford CT 06492
  
  
 ---------------------------------------------------------------
 Warning -- This program may not be used in any manner that
 competes with the business of Gaussian, Inc. or will provide
 assistance to any competitor of Gaussian, Inc.  The licensee
 of this program is prohibited from giving any competitor of
 Gaussian, Inc. access to this program.  By using this program,
 the user acknowledges that Gaussian, Inc. is engaged in the
 business of creating and licensing software in the field of
 computational chemistry and represents and warrants to the
 licensee that it is not a competitor of Gaussian, Inc. and that
 it will not use this program in any manner prohibited above.
 ---------------------------------------------------------------
  

 Cite this work as:
 Gaussian 16, Revision A.03,
 M. J. Frisch, G. W. Trucks, H. B. Schlegel, G. E. Scuseria, 
 M. A. Robb, J. R. Cheeseman, G. Scalmani, V. Barone, 
 G. A. Petersson, H. Nakatsuji, X. Li, M. Caricato, A. V. Marenich, 
 J. Bloino, B. G. Janesko, R. Gomperts, B. Mennucci, H. P. Hratchian, 
 J. V. Ortiz, A. F. Izmaylov, J. L. Sonnenberg, D. Williams-Young, 
 F. Ding, F. Lipparini, F. Egidi, J. Goings, B. Peng, A. Petrone, 
 T. Henderson, D. Ranasinghe, V. G. Zakrzewski, J. Gao, N. Rega, 
 G. Zheng, W. Liang, M. Hada, M. Ehara, K. Toyota, R. Fukuda, 
 J. Hasegawa, M. Ishida, T. Nakajima, Y. Honda, O. Kitao, H. Nakai, 
 T. Vreven, K. Throssell, J. A. Montgomery, Jr., J. E. Peralta, 
 F. Ogliaro, M. J. Bearpark, J. J. Heyd, E. N. Brothers, K. N. Kudin, 
 V. N. Staroverov, T. A. Keith, R. Kobayashi, J. Normand, 
 K. Raghavachari, A. P. Rendell, J. C. Burant, S. S. Iyengar, 
 J. Tomasi, M. Cossi, J. M. Millam, M. Klene, C. Adamo, R. Cammi, 
 J. W. Ochterski, R. L. Martin, K. Morokuma, O. Farkas, 
 J. B. Foresman, and D. J. Fox, Gaussian, Inc., Wallingford CT, 2016.
 
 ******************************************
 Gaussian 16:  ES64L-G16RevA.03 25-Dec-2016
                30-Sep-2022 
 ******************************************
 %nprocs=12
 Will use up to   12 processors via shared memory.
 %mem=16GB
 %oldchk=1f1f_III_D.chk
 %chk=1f1f_III_H.chk
 Copying data from "1f1f_III_D.chk" to current chk file "1f1f_III_H.chk"
 IOpt=  2 FromEx=T IUOpen= 4 IOptOp= 5 NList=   0 IFRang= 0 IUIn= 4 IUOut= 2.
 ----------------------------------------------------------------------
 # PBE1PBE/def2TZVP empiricaldispersion=GD3BJ int=(grid=ultrafine) geom
 =check pop=nbo
 ----------------------------------------------------------------------
 1/29=2,38=1,172=1/1;
 2/12=2,40=1/2;
 3/5=44,7=101,11=2,14=-4,25=1,30=1,74=-13,75=-5,124=41/1,2,3;
 4//1;
 5/5=2,38=5/2;
 6/7=2,8=2,9=2,10=2,28=1,40=1/1,7;
 99/5=1,9=1/99;
 ----------
 1f1f_III_H
 ----------
 Structure from the checkpoint file:  "1f1f_III_H.chk"
 Charge =  1 Multiplicity = 6
 Z-Matrix found in chk file.
 C,0,17.746,-1.573,14.073
 C,0,19.193,-1.82,13.766
 N,0,19.739,-3.084,13.674
 C,0,20.216,-0.957,13.561
 C,0,21.032,-2.989,13.429
 N,0,21.348,-1.709,13.356
 C,0,26.954,-1.513,11.283
 C,0,26.872,-0.44,12.354
 S,0,25.223,0.143,12.791
 C,0,25.647,1.516,13.893
 Fe,0,23.155,-0.817,13.27
 C,0,24.82,-3.613,14.279
 C,0,22.887,0.274,16.485
 C,0,21.839,2.193,12.107
 C,0,22.984,-2.09,10.08
 N,0,23.692,-1.546,15.023
 C,0,24.377,-2.734,15.277
 C,0,24.705,-2.89,16.725
 C,0,24.279,-1.703,17.32
 C,0,23.578,-0.926,16.264
 C,0,24.488,-1.268,18.793
 C,0,25.234,-4.188,17.406
 C,0,24.275,-5.336,17.098
 C,0,24.692,-6.674,17.694
 O,0,25.782,-7.178,17.357
 O,0,23.916,-7.237,18.494
 N,0,22.421,0.836,14.114
 C,0,22.338,1.097,15.49
 C,0,21.784,2.43,15.73
 C,0,21.573,3.003,14.497
 C,0,21.95,2.006,13.491
 C,0,21.418,3.053,17.081
 C,0,21.102,4.304,14.272
 C,0,21.977,5.385,14.378
 N,0,22.588,-0.09,11.473
 C,0,22.143,1.209,11.155
 C,0,21.74,1.292,9.736
 C,0,21.822,-0.001,9.23
 C,0,22.445,-0.814,10.283
 C,0,21.434,2.543,8.906
 C,0,21.411,-0.436,7.944
 C,0,22.123,-0.078,6.828
 N,0,23.773,-2.479,12.38
 C,0,23.641,-2.843,11.034
 C,0,24.376,-4.055,10.759
 C,0,24.914,-4.456,11.946
 C,0,24.528,-3.497,12.936
 C,0,24.611,-4.72,9.402
 C,0,25.836,-5.636,12.228
 C,0,27.212,-5.383,11.637
 C,0,28.251,-6.376,12.122
 O,0,28.671,-6.286,13.304
 O,0,28.641,-7.254,11.32
 H,0,17.66685698,-0.88743069,14.89069866
 H,0,17.26446035,-1.15843219,13.21209751
 H,0,17.27427527,-2.49690725,14.33524258
 H,0,20.15458612,0.11123417,13.55897442
 H,0,21.70887138,-3.80908731,13.30982811
 H,0,27.95092075,-1.89935119,11.24078886
 H,0,26.27424493,-2.30497904,11.51880126
 H,0,26.69462441,-1.09087413,10.33461503
 H,0,27.36952853,0.41091235,11.93769059
 H,0,27.25170312,-0.90019582,13.24222596
 H,0,25.07237296,2.34654736,14.24640464
 H,0,25.52401124,2.05297113,12.97570192
 H,0,24.94483245,0.99831047,14.51256298
 H,0,25.43148164,-4.43702489,14.58227081
 H,0,22.76806888,0.58942604,17.50051061
 H,0,21.50148805,3.14524249,11.75455154
 H,0,22.87834155,-2.51764769,9.1048827
 H,0,23.90825383,-0.6406395,19.43737037
 H,0,24.63248393,-0.32667414,18.3052193
 H,0,23.61949653,-1.88224725,18.90833448
 H,0,25.1929533,-4.02362619,18.46250197
 H,0,26.16581048,-4.42719282,16.93758136
 H,0,24.30982526,-5.46705355,16.03662722
 H,0,23.35228676,-5.08001763,17.5754655
 H,0,21.74558828,4.0713457,17.10462085
 H,0,20.35704278,3.01643157,17.21491238
 H,0,21.89575657,2.50632246,17.86699766
 H,0,20.68918691,4.32564604,13.28507711
 H,0,22.96546726,5.07088439,14.11500977
 H,0,21.66254758,6.16463577,13.71604249
 H,0,22.34326357,3.07149465,8.70893869
 H,0,20.98111524,2.25491936,7.98036241
 H,0,20.76392391,3.17623073,9.4490625
 H,0,21.38195438,-1.50532553,7.96847988
 H,0,23.15359438,0.04674312,7.08725734
 H,0,22.0320054,-0.84361543,6.0860748
 H,0,25.51888147,-5.28533861,9.43430332
 H,0,23.79267955,-5.3719056,9.17778865
 H,0,24.68585567,-3.96802005,8.64448909
 H,0,25.42781304,-6.47488176,11.70401451
 H,0,25.96238639,-5.67824507,13.28966936
 H,0,27.52129043,-4.42714427,12.00521089
 H,0,27.11631142,-5.54517682,10.5836993
 H,0,19.23266212,-3.94014532,13.7771365
 H,0,24.26903526,-7.75078259,19.22406407
 H,0,29.61495358,-6.27272951,13.47828578
 H,0,21.73894581,0.84220563,6.43989694
 H,0,20.40836972,-0.09071643,7.80113022
 H,0,20.30147725,4.47513151,14.96104087
 H,0,21.97423612,5.74876246,15.38426499
 Recover connectivity data from disk.
 Stoichiometry    C41H50FeN6O4S(1+,6)
 Framework group  C1[X(C41H50FeN6O4S)]
 Deg. of freedom   303
 Full point group                 C1      NOp   1
 Largest Abelian subgroup         C1      NOp   1
 Largest concise Abelian subgroup C1      NOp   1
                         Standard orientation:                         
 ---------------------------------------------------------------------
 Center     Atomic      Atomic             Coordinates (Angstroms)
 Number     Number       Type             X           Y           Z
 ---------------------------------------------------------------------
      1          6           0        2.701855   -1.695484    4.863536
      2          6           0        1.841605   -1.105113    3.786270
      3          7           0        0.532127   -0.721753    3.992615
      4          6           0        2.098814   -0.862301    2.479286
      5          6           0        0.020964   -0.272272    2.862315
      6          7           0        0.950442   -0.346928    1.927392
      7          6           0       -1.218963    2.618193   -2.791159
      8          6           0       -0.521306    1.394438   -3.357544
      9         16           0        0.691682    0.589624   -2.294062
     10          6           0        1.380636   -0.622806   -3.449338
     11         26           0        0.813578   -0.087145   -0.068126
     12          6           0       -2.584210   -0.337665   -0.082105
     13          6           0        1.136760   -3.430197   -0.631943
     14          6           0        4.250752    0.340541   -0.452109
     15          6           0        0.551758    3.183354    0.961997
     16          7           0       -0.458964   -1.582635   -0.260392
     17          6           0       -1.852135   -1.523186   -0.235405
     18          6           0       -2.472282   -2.848731   -0.530313
     19          6           0       -1.400338   -3.687912   -0.832274
     20          6           0       -0.162566   -2.906124   -0.573445
     21          6           0       -1.472236   -5.151343   -1.338077
     22          6           0       -3.975651   -3.214350   -0.344269
     23          6           0       -4.387828   -2.902604    1.092872
     24          6           0       -5.849598   -3.198924    1.400721
     25          8           0       -6.739810   -2.601525    0.763286
     26          8           0       -6.113064   -4.023929    2.300219
     27          7           0        2.373185   -1.295387   -0.370248
     28          6           0        2.323377   -2.688321   -0.530376
     29          6           0        3.661276   -3.227764   -0.776210
     30          6           0        4.523482   -2.156172   -0.814045
     31          6           0        3.727448   -0.955904   -0.542272
     32          6           0        4.061290   -4.702738   -0.884498
     33          6           0        5.897786   -2.224098   -1.081887
     34          6           0        6.341315   -2.343687   -2.398855
     35          7           0        2.109330    1.446176    0.153637
     36          6           0        3.489903    1.473508   -0.128891
     37          6           0        4.079909    2.769200    0.265993
     38          6           0        3.071063    3.478317    0.909414
     39          6           0        1.842803    2.691446    0.735866
     40          6           0        5.466110    3.326042   -0.074466
     41          6           0        3.201769    4.724640    1.573897
     42          6           0        3.396796    5.877769    0.857779
     43          7           0       -0.685273    1.146923    0.340273
     44          6           0       -0.621009    2.489242    0.734844
     45          6           0       -1.940199    3.075384    0.765978
     46          6           0       -2.811471    2.078727    0.439215
     47          6           0       -2.039134    0.898400    0.196110
     48          6           0       -2.308575    4.539859    1.007868
     49          6           0       -4.322616    2.151177    0.257007
     50          6           0       -4.665191    2.926687   -1.003109
     51          6           0       -6.124000    2.792947   -1.396537
     52          8           0       -6.524433    1.703436   -1.880522
     53          8           0       -6.872871    3.778529   -1.212121
     54          1           0        3.130949   -2.611725    4.515282
     55          1           0        3.482903   -1.008037    5.113095
     56          1           0        2.105483   -1.887909    5.730838
     57          1           0        3.023648   -1.038747    1.970907
     58          1           0       -0.976376    0.090723    2.726492
     59          1           0       -2.030592    2.894310   -3.431407
     60          1           0       -1.595113    2.394359   -1.814783
     61          1           0       -0.522863    3.428361   -2.728122
     62          1           0        0.035777    1.752585   -4.197955
     63          1           0       -1.295815    0.669775   -3.498607
     64          1           0        2.282956   -1.197221   -3.421687
     65          1           0        2.097706    0.162985   -3.564411
     66          1           0        1.158803   -1.266623   -2.623995
     67          1           0       -3.647242   -0.396100   -0.189107
     68          1           0        1.231547   -4.487572   -0.765632
     69          1           0        5.295289    0.474591   -0.641515
     70          1           0        0.466164    4.179782    1.342398
     71          1           0       -0.802820   -5.977574   -1.219235
     72          1           0       -0.647107   -4.799696   -1.921521
     73          1           0       -1.578317   -5.319010   -0.286633
     74          1           0       -4.055360   -4.274230   -0.467556
     75          1           0       -4.535743   -2.558459   -0.977518
     76          1           0       -4.276039   -1.844307    1.204282
     77          1           0       -3.820268   -3.568331    1.708975
     78          1           0        4.744334   -4.828211   -1.698504
     79          1           0        4.530444   -5.012811    0.025804
     80          1           0        3.188460   -5.297305   -1.056420
     81          1           0        6.344141   -1.340463   -0.675861
     82          1           0        5.644020   -1.865795   -3.054827
     83          1           0        7.299572   -1.877673   -2.496191
     84          1           0        5.498482    3.593739   -1.109932
     85          1           0        5.659564    4.191711    0.523943
     86          1           0        6.208346    2.581552    0.124830
     87          1           0        2.316148    4.863603    2.158075
     88          1           0        2.928107    5.786536   -0.099773
     89          1           0        2.968656    6.703151    1.387250
     90          1           0       -3.242245    4.756062    0.532037
     91          1           0       -2.394823    4.716915    2.059587
     92          1           0       -1.546389    5.171213    0.601218
     93          1           0       -4.702674    2.720722    1.079244
     94          1           0       -4.659971    1.148003    0.099739
     95          1           0       -4.102826    2.472886   -1.792229
     96          1           0       -4.516074    3.959185   -0.765174
     97          1           0        0.045535   -0.776223    4.864545
     98          1           0       -6.883497   -4.591118    2.220662
     99          1           0       -7.023992    1.697129   -2.700279
    100          1           0        4.445797    6.043359    0.727103
    101          1           0        4.023537    4.633865    2.253130
    102          1           0        6.285724   -3.060772   -0.539319
    103          1           0        6.420603   -3.379335   -2.655850
 ---------------------------------------------------------------------
 Rotational constants (GHZ):           0.0654751           0.0436070           0.0340354
 Standard basis: def2TZVP (5D, 7F)
 There are  2230 symmetry adapted cartesian basis functions of A   symmetry.
 There are  1963 symmetry adapted basis functions of A   symmetry.
  1963 basis functions,  3172 primitive gaussians,  2230 cartesian basis functions
   208 alpha electrons      203 beta electrons
       nuclear repulsion energy      9024.6235923229 Hartrees.
 NAtoms=  103 NActive=  103 NUniq=  103 SFac= 1.00D+00 NAtFMM=   60 NAOKFM=T Big=T
 Integral buffers will be    131072 words long.
 Raffenetti 2 integral format.
 Two-electron integral symmetry is turned on.
 Nuclear repulsion after empirical dispersion term =     9024.4711723104 Hartrees.
 One-electron integrals computed using PRISM.
   1 Symmetry operations used in ECPInt.
 ECPInt:  NShTT=  311655 NPrTT=  958403 LenC2=  228367 LenP2D=  454263.
 LDataN:  DoStor=T MaxTD1= 6 Len=  172
 NBasis=  1963 RedAO= T EigKep=  3.60D-06  NBF=  1963
 NBsUse=  1963 1.00D-06 EigRej= -1.00D+00 NBFU=  1963
 ExpMin= 4.20D-02 ExpMax= 3.01D+05 ExpMxC= 2.91D+03 IAcc=3 IRadAn=         5 AccDes= 0.00D+00
 Harris functional with IExCor= 1009 and IRadAn=       5 diagonalized for initial guess.
 HarFok:  IExCor= 1009 AccDes= 0.00D+00 IRadAn=         5 IDoV= 1 UseB2=F ITyADJ=14
 ICtDFT=  3500011 ScaDFX=  1.000000  1.000000  1.000000  1.000000
 FoFCou: FMM=F IPFlag=           0 FMFlag=      100000 FMFlg1=        2001
         NFxFlg=           0 DoJE=T BraDBF=F KetDBF=T FulRan=T
         wScrn=  0.000000 ICntrl=       500 IOpCl=  0 I1Cent=   200000004 NGrid=           0
         NMat0=    1 NMatS0=      1 NMatT0=    0 NMatD0=    1 NMtDS0=    0 NMtDT0=    0
 Petite list used in FoFCou.
 Initial guess <Sx>= 0.0000 <Sy>= 0.0000 <Sz>= 2.5000 <S**2>= 8.7500 S= 2.5000
 Requested convergence on RMS density matrix=1.00D-08 within 128 cycles.
 Requested convergence on MAX density matrix=1.00D-06.
 Requested convergence on             energy=1.00D-06.
 No special actions if energy rises.
 EnCoef did   100 forward-backward iterations
 EnCoef did    14 forward-backward iterations
 EnCoef did   100 forward-backward iterations
 EnCoef did    10 forward-backward iterations
 EnCoef did     6 forward-backward iterations
 EnCoef did     5 forward-backward iterations
 Restarting incremental Fock formation.
 SCF Done:  E(UPBE1PBE) =  -3881.23902883     A.U. after   33 cycles
            NFock= 33  Conv=0.30D-08     -V/T= 2.0028
 <Sx>= 0.0000 <Sy>= 0.0000 <Sz>= 2.5000 <S**2>= 8.7645 S= 2.5024
 <L.S>= 0.000000000000E+00
 Annihilation of the first spin contaminant:
 S**2 before annihilation     8.7645,   after     8.7501
 Hyperfine terms turned off by default for NAtoms > 100.

 **********************************************************************

            Population analysis using the SCF density.

 **********************************************************************

 Orbital symmetries:
 Alpha Orbitals:
       Occupied  (A) (A) (A) (A) (A) (A) (A) (A) (A) (A) (A) (A)
                 (A) (A) (A) (A) (A) (A) (A) (A) (A) (A) (A) (A)
                 (A) (A) (A) (A) (A) (A) (A) (A) (A) (A) (A) (A)
                 (A) (A) (A) (A) (A) (A) (A) (A) (A) (A) (A) (A)
                 (A) (A) (A) (A) (A) (A) (A) (A) (A) (A) (A) (A)
                 (A) (A) (A) (A) (A) (A) (A) (A) (A) (A) (A) (A)
                 (A) (A) (A) (A) (A) (A) (A) (A) (A) (A) (A) (A)
                 (A) (A) (A) (A) (A) (A) (A) (A) (A) (A) (A) (A)
                 (A) (A) (A) (A) (A) (A) (A) (A) (A) (A) (A) (A)
                 (A) (A) (A) (A) (A) (A) (A) (A) (A) (A) (A) (A)
                 (A) (A) (A) (A) (A) (A) (A) (A) (A) (A) (A) (A)
                 (A) (A) (A) (A) (A) (A) (A) (A) (A) (A) (A) (A)
                 (A) (A) (A) (A) (A) (A) (A) (A) (A) (A) (A) (A)
                 (A) (A) (A) (A) (A) (A) (A) (A) (A) (A) (A) (A)
                 (A) (A) (A) (A) (A) (A) (A) (A) (A) (A) (A) (A)
                 (A) (A) (A) (A) (A) (A) (A) (A) (A) (A) (A) (A)
                 (A) (A) (A) (A) (A) (A) (A) (A) (A) (A) (A) (A)
                 (A) (A) (A) (A)
       Virtual   (A) (A) (A) (A) (A) (A) (A) (A) (A) (A) (A) (A)
                 (A) (A) (A) (A) (A) (A) (A) (A) (A) (A) (A) (A)
                 (A) (A) (A) (A) (A) (A) (A) (A) (A) (A) (A) (A)
                 (A) (A) (A) (A) (A) (A) (A) (A) (A) (A) (A) (A)
                 (A) (A) (A) (A) (A) (A) (A) (A) (A) (A) (A) (A)
                 (A) (A) (A) (A) (A) (A) (A) (A) (A) (A) (A) (A)
                 (A) (A) (A) (A) (A) (A) (A) (A) (A) (A) (A) (A)
                 (A) (A) (A) (A) (A) (A) (A) (A) (A) (A) (A) (A)
                 (A) (A) (A) (A) (A) (A) (A) (A) (A) (A) (A) (A)
                 (A) (A) (A) (A) (A) (A) (A) (A) (A) (A) (A) (A)
                 (A) (A) (A) (A) (A) (A) (A) (A) (A) (A) (A) (A)
                 (A) (A) (A) (A) (A) (A) (A) (A) (A) (A) (A) (A)
                 (A) (A) (A) (A) (A) (A) (A) (A) (A) (A) (A) (A)
                 (A) (A) (A) (A) (A) (A) (A) (A) (A) (A) (A) (A)
                 (A) (A) (A) (A) (A) (A) (A) (A) (A) (A) (A) (A)
                 (A) (A) (A) (A) (A) (A) (A) (A) (A) (A) (A) (A)
                 (A) (A) (A) (A) (A) (A) (A) (A) (A) (A) (A) (A)
                 (A) (A) (A) (A) (A) (A) (A) (A) (A) (A) (A) (A)
                 (A) (A) (A) (A) (A) (A) (A) (A) (A) (A) (A) (A)
                 (A) (A) (A) (A) (A) (A) (A) (A) (A) (A) (A) (A)
                 (A) (A) (A) (A) (A) (A) (A) (A) (A) (A) (A) (A)
                 (A) (A) (A) (A) (A) (A) (A) (A) (A) (A) (A) (A)
                 (A) (A) (A) (A) (A) (A) (A) (A) (A) (A) (A) (A)
                 (A) (A) (A) (A) (A) (A) (A) (A) (A) (A) (A) (A)
                 (A) (A) (A) (A) (A) (A) (A) (A) (A) (A) (A) (A)
                 (A) (A) (A) (A) (A) (A) (A) (A) (A) (A) (A) (A)
                 (A) (A) (A) (A) (A) (A) (A) (A) (A) (A) (A) (A)
                 (A) (A) (A) (A) (A) (A) (A) (A) (A) (A) (A) (A)
                 (A) (A) (A) (A) (A) (A) (A) (A) (A) (A) (A) (A)
                 (A) (A) (A) (A) (A) (A) (A) (A) (A) (A) (A) (A)
                 (A) (A) (A) (A) (A) (A) (A) (A) (A) (A) (A) (A)
                 (A) (A) (A) (A) (A) (A) (A) (A) (A) (A) (A) (A)
                 (A) (A) (A) (A) (A) (A) (A) (A) (A) (A) (A) (A)
                 (A) (A) (A) (A) (A) (A) (A) (A) (A) (A) (A) (A)
                 (A) (A) (A) (A) (A) (A) (A) (A) (A) (A) (A) (A)
                 (A) (A) (A) (A) (A) (A) (A) (A) (A) (A) (A) (A)
                 (A) (A) (A) (A) (A) (A) (A) (A) (A) (A) (A) (A)
                 (A) (A) (A) (A) (A) (A) (A) (A) (A) (A) (A) (A)
                 (A) (A) (A) (A) (A) (A) (A) (A) (A) (A) (A) (A)
                 (A) (A) (A) (A) (A) (A) (A) (A) (A) (A) (A) (A)
                 (A) (A) (A) (A) (A) (A) (A) (A) (A) (A) (A) (A)
                 (A) (A) (A) (A) (A) (A) (A) (A) (A) (A) (A) (A)
                 (A) (A) (A) (A) (A) (A) (A) (A) (A) (A) (A) (A)
                 (A) (A) (A) (A) (A) (A) (A) (A) (A) (A) (A) (A)
                 (A) (A) (A) (A) (A) (A) (A) (A) (A) (A) (A) (A)
                 (A) (A) (A) (A) (A) (A) (A) (A) (A) (A) (A) (A)
                 (A) (A) (A) (A) (A) (A) (A) (A) (A) (A) (A) (A)
                 (A) (A) (A) (A) (A) (A) (A) (A) (A) (A) (A) (A)
                 (A) (A) (A) (A) (A) (A) (A) (A) (A) (A) (A) (A)
                 (A) (A) (A) (A) (A) (A) (A) (A) (A) (A) (A) (A)
                 (A) (A) (A) (A) (A) (A) (A) (A) (A) (A) (A) (A)
                 (A) (A) (A) (A) (A) (A) (A) (A) (A) (A) (A) (A)
                 (A) (A) (A) (A) (A) (A) (A) (A) (A) (A) (A) (A)
                 (A) (A) (A) (A) (A) (A) (A) (A) (A) (A) (A) (A)
                 (A) (A) (A) (A) (A) (A) (A) (A) (A) (A) (A) (A)
                 (A) (A) (A) (A) (A) (A) (A) (A) (A) (A) (A) (A)
                 (A) (A) (A) (A) (A) (A) (A) (A) (A) (A) (A) (A)
                 (A) (A) (A) (A) (A) (A) (A) (A) (A) (A) (A) (A)
                 (A) (A) (A) (A) (A) (A) (A) (A) (A) (A) (A) (A)
                 (A) (A) (A) (A) (A) (A) (A) (A) (A) (A) (A) (A)
                 (A) (A) (A) (A) (A) (A) (A) (A) (A) (A) (A) (A)
                 (A) (A) (A) (A) (A) (A) (A) (A) (A) (A) (A) (A)
                 (A) (A) (A) (A) (A) (A) (A) (A) (A) (A) (A) (A)
                 (A) (A) (A) (A) (A) (A) (A) (A) (A) (A) (A) (A)
                 (A) (A) (A) (A) (A) (A) (A) (A) (A) (A) (A) (A)
                 (A) (A) (A) (A) (A) (A) (A) (A) (A) (A) (A) (A)
                 (A) (A) (A) (A) (A) (A) (A) (A) (A) (A) (A) (A)
                 (A) (A) (A) (A) (A) (A) (A) (A) (A) (A) (A) (A)
                 (A) (A) (A) (A) (A) (A) (A) (A) (A) (A) (A) (A)
                 (A) (A) (A) (A) (A) (A) (A) (A) (A) (A) (A) (A)
                 (A) (A) (A) (A) (A) (A) (A) (A) (A) (A) (A) (A)
                 (A) (A) (A) (A) (A) (A) (A) (A) (A) (A) (A) (A)
                 (A) (A) (A) (A) (A) (A) (A) (A) (A) (A) (A) (A)
                 (A) (A) (A) (A) (A) (A) (A) (A) (A) (A) (A) (A)
                 (A) (A) (A) (A) (A) (A) (A) (A) (A) (A) (A) (A)
                 (A) (A) (A) (A) (A) (A) (A) (A) (A) (A) (A) (A)
                 (A) (A) (A) (A) (A) (A) (A) (A) (A) (A) (A) (A)
                 (A) (A) (A) (A) (A) (A) (A) (A) (A) (A) (A) (A)
                 (A) (A) (A) (A) (A) (A) (A) (A) (A) (A) (A) (A)
                 (A) (A) (A) (A) (A) (A) (A) (A) (A) (A) (A) (A)
                 (A) (A) (A) (A) (A) (A) (A) (A) (A) (A) (A) (A)
                 (A) (A) (A) (A) (A) (A) (A) (A) (A) (A) (A) (A)
                 (A) (A) (A) (A) (A) (A) (A) (A) (A) (A) (A) (A)
                 (A) (A) (A) (A) (A) (A) (A) (A) (A) (A) (A) (A)
                 (A) (A) (A) (A) (A) (A) (A) (A) (A) (A) (A) (A)
                 (A) (A) (A) (A) (A) (A) (A) (A) (A) (A) (A) (A)
                 (A) (A) (A) (A) (A) (A) (A) (A) (A) (A) (A) (A)
                 (A) (A) (A) (A) (A) (A) (A) (A) (A) (A) (A) (A)
                 (A) (A) (A) (A) (A) (A) (A) (A) (A) (A) (A) (A)
                 (A) (A) (A) (A) (A) (A) (A) (A) (A) (A) (A) (A)
                 (A) (A) (A) (A) (A) (A) (A) (A) (A) (A) (A) (A)
                 (A) (A) (A) (A) (A) (A) (A) (A) (A) (A) (A) (A)
                 (A) (A) (A) (A) (A) (A) (A) (A) (A) (A) (A) (A)
                 (A) (A) (A) (A) (A) (A) (A) (A) (A) (A) (A) (A)
                 (A) (A) (A) (A) (A) (A) (A) (A) (A) (A) (A) (A)
                 (A) (A) (A) (A) (A) (A) (A) (A) (A) (A) (A) (A)
                 (A) (A) (A) (A) (A) (A) (A) (A) (A) (A) (A) (A)
                 (A) (A) (A) (A) (A) (A) (A) (A) (A) (A) (A) (A)
                 (A) (A) (A) (A) (A) (A) (A) (A) (A) (A) (A) (A)
                 (A) (A) (A) (A) (A) (A) (A) (A) (A) (A) (A) (A)
                 (A) (A) (A) (A) (A) (A) (A) (A) (A) (A) (A) (A)
                 (A) (A) (A) (A) (A) (A) (A) (A) (A) (A) (A) (A)
                 (A) (A) (A) (A) (A) (A) (A) (A) (A) (A) (A) (A)
                 (A) (A) (A) (A) (A) (A) (A) (A) (A) (A) (A) (A)
                 (A) (A) (A) (A) (A) (A) (A) (A) (A) (A) (A) (A)
                 (A) (A) (A) (A) (A) (A) (A) (A) (A) (A) (A) (A)
                 (A) (A) (A) (A) (A) (A) (A) (A) (A) (A) (A) (A)
                 (A) (A) (A) (A) (A) (A) (A) (A) (A) (A) (A) (A)
                 (A) (A) (A) (A) (A) (A) (A) (A) (A) (A) (A) (A)
                 (A) (A) (A) (A) (A) (A) (A) (A) (A) (A) (A) (A)
                 (A) (A) (A) (A) (A) (A) (A) (A) (A) (A) (A) (A)
                 (A) (A) (A) (A) (A) (A) (A) (A) (A) (A) (A) (A)
                 (A) (A) (A) (A) (A) (A) (A) (A) (A) (A) (A) (A)
                 (A) (A) (A) (A) (A) (A) (A) (A) (A) (A) (A) (A)
                 (A) (A) (A) (A) (A) (A) (A) (A) (A) (A) (A) (A)
                 (A) (A) (A) (A) (A) (A) (A) (A) (A) (A) (A) (A)
                 (A) (A) (A) (A) (A) (A) (A) (A) (A) (A) (A) (A)
                 (A) (A) (A) (A) (A) (A) (A) (A) (A) (A) (A) (A)
                 (A) (A) (A) (A) (A) (A) (A) (A) (A) (A) (A) (A)
                 (A) (A) (A) (A) (A) (A) (A) (A) (A) (A) (A) (A)
                 (A) (A) (A) (A) (A) (A) (A) (A) (A) (A) (A) (A)
                 (A) (A) (A) (A) (A) (A) (A) (A) (A) (A) (A) (A)
                 (A) (A) (A) (A) (A) (A) (A) (A) (A) (A) (A) (A)
                 (A) (A) (A) (A) (A) (A) (A) (A) (A) (A) (A) (A)
                 (A) (A) (A) (A) (A) (A) (A) (A) (A) (A) (A) (A)
                 (A) (A) (A) (A) (A) (A) (A) (A) (A) (A) (A) (A)
                 (A) (A) (A) (A) (A) (A) (A) (A) (A) (A) (A) (A)
                 (A) (A) (A) (A) (A) (A) (A) (A) (A) (A) (A) (A)
                 (A) (A) (A) (A) (A) (A) (A) (A) (A) (A) (A) (A)
                 (A) (A) (A) (A) (A) (A) (A) (A) (A) (A) (A) (A)
                 (A) (A) (A) (A) (A) (A) (A) (A) (A) (A) (A) (A)
                 (A) (A) (A) (A) (A) (A) (A) (A) (A) (A) (A) (A)
                 (A) (A) (A) (A) (A) (A) (A) (A) (A) (A) (A) (A)
                 (A) (A) (A) (A) (A) (A) (A) (A) (A) (A) (A) (A)
                 (A) (A) (A) (A) (A) (A) (A) (A) (A) (A) (A) (A)
                 (A) (A) (A) (A) (A) (A) (A) (A) (A) (A) (A) (A)
                 (A) (A) (A) (A) (A) (A) (A) (A) (A) (A) (A) (A)
                 (A) (A) (A) (A) (A) (A) (A) (A) (A) (A) (A) (A)
                 (A) (A) (A) (A) (A) (A) (A) (A) (A) (A) (A) (A)
                 (A) (A) (A) (A) (A) (A) (A) (A) (A) (A) (A) (A)
                 (A) (A) (A) (A) (A) (A) (A) (A) (A) (A) (A) (A)
                 (A) (A) (A) (A) (A) (A) (A) (A) (A) (A) (A) (A)
                 (A) (A) (A) (A) (A) (A) (A) (A) (A) (A) (A) (A)
                 (A) (A) (A) (A) (A) (A) (A) (A) (A) (A) (A) (A)
                 (A) (A) (A) (A) (A) (A) (A) (A) (A) (A) (A) (A)
                 (A) (A) (A) (A) (A) (A) (A) (A) (A) (A) (A) (A)
                 (A) (A) (A)
 Beta  Orbitals:
       Occupied  (A) (A) (A) (A) (A) (A) (A) (A) (A) (A) (A) (A)
                 (A) (A) (A) (A) (A) (A) (A) (A) (A) (A) (A) (A)
                 (A) (A) (A) (A) (A) (A) (A) (A) (A) (A) (A) (A)
                 (A) (A) (A) (A) (A) (A) (A) (A) (A) (A) (A) (A)
                 (A) (A) (A) (A) (A) (A) (A) (A) (A) (A) (A) (A)
                 (A) (A) (A) (A) (A) (A) (A) (A) (A) (A) (A) (A)
                 (A) (A) (A) (A) (A) (A) (A) (A) (A) (A) (A) (A)
                 (A) (A) (A) (A) (A) (A) (A) (A) (A) (A) (A) (A)
                 (A) (A) (A) (A) (A) (A) (A) (A) (A) (A) (A) (A)
                 (A) (A) (A) (A) (A) (A) (A) (A) (A) (A) (A) (A)
                 (A) (A) (A) (A) (A) (A) (A) (A) (A) (A) (A) (A)
                 (A) (A) (A) (A) (A) (A) (A) (A) (A) (A) (A) (A)
                 (A) (A) (A) (A) (A) (A) (A) (A) (A) (A) (A) (A)
                 (A) (A) (A) (A) (A) (A) (A) (A) (A) (A) (A) (A)
                 (A) (A) (A) (A) (A) (A) (A) (A) (A) (A) (A) (A)
                 (A) (A) (A) (A) (A) (A) (A) (A) (A) (A) (A) (A)
                 (A) (A) (A) (A) (A) (A) (A) (A) (A) (A) (A)
       Virtual   (A) (A) (A) (A) (A) (A) (A) (A) (A) (A) (A) (A)
                 (A) (A) (A) (A) (A) (A) (A) (A) (A) (A) (A) (A)
                 (A) (A) (A) (A) (A) (A) (A) (A) (A) (A) (A) (A)
                 (A) (A) (A) (A) (A) (A) (A) (A) (A) (A) (A) (A)
                 (A) (A) (A) (A) (A) (A) (A) (A) (A) (A) (A) (A)
                 (A) (A) (A) (A) (A) (A) (A) (A) (A) (A) (A) (A)
                 (A) (A) (A) (A) (A) (A) (A) (A) (A) (A) (A) (A)
                 (A) (A) (A) (A) (A) (A) (A) (A) (A) (A) (A) (A)
                 (A) (A) (A) (A) (A) (A) (A) (A) (A) (A) (A) (A)
                 (A) (A) (A) (A) (A) (A) (A) (A) (A) (A) (A) (A)
                 (A) (A) (A) (A) (A) (A) (A) (A) (A) (A) (A) (A)
                 (A) (A) (A) (A) (A) (A) (A) (A) (A) (A) (A) (A)
                 (A) (A) (A) (A) (A) (A) (A) (A) (A) (A) (A) (A)
                 (A) (A) (A) (A) (A) (A) (A) (A) (A) (A) (A) (A)
                 (A) (A) (A) (A) (A) (A) (A) (A) (A) (A) (A) (A)
                 (A) (A) (A) (A) (A) (A) (A) (A) (A) (A) (A) (A)
                 (A) (A) (A) (A) (A) (A) (A) (A) (A) (A) (A) (A)
                 (A) (A) (A) (A) (A) (A) (A) (A) (A) (A) (A) (A)
                 (A) (A) (A) (A) (A) (A) (A) (A) (A) (A) (A) (A)
                 (A) (A) (A) (A) (A) (A) (A) (A) (A) (A) (A) (A)
                 (A) (A) (A) (A) (A) (A) (A) (A) (A) (A) (A) (A)
                 (A) (A) (A) (A) (A) (A) (A) (A) (A) (A) (A) (A)
                 (A) (A) (A) (A) (A) (A) (A) (A) (A) (A) (A) (A)
                 (A) (A) (A) (A) (A) (A) (A) (A) (A) (A) (A) (A)
                 (A) (A) (A) (A) (A) (A) (A) (A) (A) (A) (A) (A)
                 (A) (A) (A) (A) (A) (A) (A) (A) (A) (A) (A) (A)
                 (A) (A) (A) (A) (A) (A) (A) (A) (A) (A) (A) (A)
                 (A) (A) (A) (A) (A) (A) (A) (A) (A) (A) (A) (A)
                 (A) (A) (A) (A) (A) (A) (A) (A) (A) (A) (A) (A)
                 (A) (A) (A) (A) (A) (A) (A) (A) (A) (A) (A) (A)
                 (A) (A) (A) (A) (A) (A) (A) (A) (A) (A) (A) (A)
                 (A) (A) (A) (A) (A) (A) (A) (A) (A) (A) (A) (A)
                 (A) (A) (A) (A) (A) (A) (A) (A) (A) (A) (A) (A)
                 (A) (A) (A) (A) (A) (A) (A) (A) (A) (A) (A) (A)
                 (A) (A) (A) (A) (A) (A) (A) (A) (A) (A) (A) (A)
                 (A) (A) (A) (A) (A) (A) (A) (A) (A) (A) (A) (A)
                 (A) (A) (A) (A) (A) (A) (A) (A) (A) (A) (A) (A)
                 (A) (A) (A) (A) (A) (A) (A) (A) (A) (A) (A) (A)
                 (A) (A) (A) (A) (A) (A) (A) (A) (A) (A) (A) (A)
                 (A) (A) (A) (A) (A) (A) (A) (A) (A) (A) (A) (A)
                 (A) (A) (A) (A) (A) (A) (A) (A) (A) (A) (A) (A)
                 (A) (A) (A) (A) (A) (A) (A) (A) (A) (A) (A) (A)
                 (A) (A) (A) (A) (A) (A) (A) (A) (A) (A) (A) (A)
                 (A) (A) (A) (A) (A) (A) (A) (A) (A) (A) (A) (A)
                 (A) (A) (A) (A) (A) (A) (A) (A) (A) (A) (A) (A)
                 (A) (A) (A) (A) (A) (A) (A) (A) (A) (A) (A) (A)
                 (A) (A) (A) (A) (A) (A) (A) (A) (A) (A) (A) (A)
                 (A) (A) (A) (A) (A) (A) (A) (A) (A) (A) (A) (A)
                 (A) (A) (A) (A) (A) (A) (A) (A) (A) (A) (A) (A)
                 (A) (A) (A) (A) (A) (A) (A) (A) (A) (A) (A) (A)
                 (A) (A) (A) (A) (A) (A) (A) (A) (A) (A) (A) (A)
                 (A) (A) (A) (A) (A) (A) (A) (A) (A) (A) (A) (A)
                 (A) (A) (A) (A) (A) (A) (A) (A) (A) (A) (A) (A)
                 (A) (A) (A) (A) (A) (A) (A) (A) (A) (A) (A) (A)
                 (A) (A) (A) (A) (A) (A) (A) (A) (A) (A) (A) (A)
                 (A) (A) (A) (A) (A) (A) (A) (A) (A) (A) (A) (A)
                 (A) (A) (A) (A) (A) (A) (A) (A) (A) (A) (A) (A)
                 (A) (A) (A) (A) (A) (A) (A) (A) (A) (A) (A) (A)
                 (A) (A) (A) (A) (A) (A) (A) (A) (A) (A) (A) (A)
                 (A) (A) (A) (A) (A) (A) (A) (A) (A) (A) (A) (A)
                 (A) (A) (A) (A) (A) (A) (A) (A) (A) (A) (A) (A)
                 (A) (A) (A) (A) (A) (A) (A) (A) (A) (A) (A) (A)
                 (A) (A) (A) (A) (A) (A) (A) (A) (A) (A) (A) (A)
                 (A) (A) (A) (A) (A) (A) (A) (A) (A) (A) (A) (A)
                 (A) (A) (A) (A) (A) (A) (A) (A) (A) (A) (A) (A)
                 (A) (A) (A) (A) (A) (A) (A) (A) (A) (A) (A) (A)
                 (A) (A) (A) (A) (A) (A) (A) (A) (A) (A) (A) (A)
                 (A) (A) (A) (A) (A) (A) (A) (A) (A) (A) (A) (A)
                 (A) (A) (A) (A) (A) (A) (A) (A) (A) (A) (A) (A)
                 (A) (A) (A) (A) (A) (A) (A) (A) (A) (A) (A) (A)
                 (A) (A) (A) (A) (A) (A) (A) (A) (A) (A) (A) (A)
                 (A) (A) (A) (A) (A) (A) (A) (A) (A) (A) (A) (A)
                 (A) (A) (A) (A) (A) (A) (A) (A) (A) (A) (A) (A)
                 (A) (A) (A) (A) (A) (A) (A) (A) (A) (A) (A) (A)
                 (A) (A) (A) (A) (A) (A) (A) (A) (A) (A) (A) (A)
                 (A) (A) (A) (A) (A) (A) (A) (A) (A) (A) (A) (A)
                 (A) (A) (A) (A) (A) (A) (A) (A) (A) (A) (A) (A)
                 (A) (A) (A) (A) (A) (A) (A) (A) (A) (A) (A) (A)
                 (A) (A) (A) (A) (A) (A) (A) (A) (A) (A) (A) (A)
                 (A) (A) (A) (A) (A) (A) (A) (A) (A) (A) (A) (A)
                 (A) (A) (A) (A) (A) (A) (A) (A) (A) (A) (A) (A)
                 (A) (A) (A) (A) (A) (A) (A) (A) (A) (A) (A) (A)
                 (A) (A) (A) (A) (A) (A) (A) (A) (A) (A) (A) (A)
                 (A) (A) (A) (A) (A) (A) (A) (A) (A) (A) (A) (A)
                 (A) (A) (A) (A) (A) (A) (A) (A) (A) (A) (A) (A)
                 (A) (A) (A) (A) (A) (A) (A) (A) (A) (A) (A) (A)
                 (A) (A) (A) (A) (A) (A) (A) (A) (A) (A) (A) (A)
                 (A) (A) (A) (A) (A) (A) (A) (A) (A) (A) (A) (A)
                 (A) (A) (A) (A) (A) (A) (A) (A) (A) (A) (A) (A)
                 (A) (A) (A) (A) (A) (A) (A) (A) (A) (A) (A) (A)
                 (A) (A) (A) (A) (A) (A) (A) (A) (A) (A) (A) (A)
                 (A) (A) (A) (A) (A) (A) (A) (A) (A) (A) (A) (A)
                 (A) (A) (A) (A) (A) (A) (A) (A) (A) (A) (A) (A)
                 (A) (A) (A) (A) (A) (A) (A) (A) (A) (A) (A) (A)
                 (A) (A) (A) (A) (A) (A) (A) (A) (A) (A) (A) (A)
                 (A) (A) (A) (A) (A) (A) (A) (A) (A) (A) (A) (A)
                 (A) (A) (A) (A) (A) (A) (A) (A) (A) (A) (A) (A)
                 (A) (A) (A) (A) (A) (A) (A) (A) (A) (A) (A) (A)
                 (A) (A) (A) (A) (A) (A) (A) (A) (A) (A) (A) (A)
                 (A) (A) (A) (A) (A) (A) (A) (A) (A) (A) (A) (A)
                 (A) (A) (A) (A) (A) (A) (A) (A) (A) (A) (A) (A)
                 (A) (A) (A) (A) (A) (A) (A) (A) (A) (A) (A) (A)
                 (A) (A) (A) (A) (A) (A) (A) (A) (A) (A) (A) (A)
                 (A) (A) (A) (A) (A) (A) (A) (A) (A) (A) (A) (A)
                 (A) (A) (A) (A) (A) (A) (A) (A) (A) (A) (A) (A)
                 (A) (A) (A) (A) (A) (A) (A) (A) (A) (A) (A) (A)
                 (A) (A) (A) (A) (A) (A) (A) (A) (A) (A) (A) (A)
                 (A) (A) (A) (A) (A) (A) (A) (A) (A) (A) (A) (A)
                 (A) (A) (A) (A) (A) (A) (A) (A) (A) (A) (A) (A)
                 (A) (A) (A) (A) (A) (A) (A) (A) (A) (A) (A) (A)
                 (A) (A) (A) (A) (A) (A) (A) (A) (A) (A) (A) (A)
                 (A) (A) (A) (A) (A) (A) (A) (A) (A) (A) (A) (A)
                 (A) (A) (A) (A) (A) (A) (A) (A) (A) (A) (A) (A)
                 (A) (A) (A) (A) (A) (A) (A) (A) (A) (A) (A) (A)
                 (A) (A) (A) (A) (A) (A) (A) (A) (A) (A) (A) (A)
                 (A) (A) (A) (A) (A) (A) (A) (A) (A) (A) (A) (A)
                 (A) (A) (A) (A) (A) (A) (A) (A) (A) (A) (A) (A)
                 (A) (A) (A) (A) (A) (A) (A) (A) (A) (A) (A) (A)
                 (A) (A) (A) (A) (A) (A) (A) (A) (A) (A) (A) (A)
                 (A) (A) (A) (A) (A) (A) (A) (A) (A) (A) (A) (A)
                 (A) (A) (A) (A) (A) (A) (A) (A) (A) (A) (A) (A)
                 (A) (A) (A) (A) (A) (A) (A) (A) (A) (A) (A) (A)
                 (A) (A) (A) (A) (A) (A) (A) (A) (A) (A) (A) (A)
                 (A) (A) (A) (A) (A) (A) (A) (A) (A) (A) (A) (A)
                 (A) (A) (A) (A) (A) (A) (A) (A) (A) (A) (A) (A)
                 (A) (A) (A) (A) (A) (A) (A) (A) (A) (A) (A) (A)
                 (A) (A) (A) (A) (A) (A) (A) (A) (A) (A) (A) (A)
                 (A) (A) (A) (A) (A) (A) (A) (A) (A) (A) (A) (A)
                 (A) (A) (A) (A) (A) (A) (A) (A) (A) (A) (A) (A)
                 (A) (A) (A) (A) (A) (A) (A) (A) (A) (A) (A) (A)
                 (A) (A) (A) (A) (A) (A) (A) (A) (A) (A) (A) (A)
                 (A) (A) (A) (A) (A) (A) (A) (A) (A) (A) (A) (A)
                 (A) (A) (A) (A) (A) (A) (A) (A) (A) (A) (A) (A)
                 (A) (A) (A) (A) (A) (A) (A) (A) (A) (A) (A) (A)
                 (A) (A) (A) (A) (A) (A) (A) (A) (A) (A) (A) (A)
                 (A) (A) (A) (A) (A) (A) (A) (A) (A) (A) (A) (A)
                 (A) (A) (A) (A) (A) (A) (A) (A) (A) (A) (A) (A)
                 (A) (A) (A) (A) (A) (A) (A) (A) (A) (A) (A) (A)
                 (A) (A) (A) (A) (A) (A) (A) (A) (A) (A) (A) (A)
                 (A) (A) (A) (A) (A) (A) (A) (A) (A) (A) (A) (A)
                 (A) (A) (A) (A) (A) (A) (A) (A) (A) (A) (A) (A)
                 (A) (A) (A) (A) (A) (A) (A) (A) (A) (A) (A) (A)
                 (A) (A) (A) (A) (A) (A) (A) (A) (A) (A) (A) (A)
                 (A) (A) (A) (A) (A) (A) (A) (A) (A) (A) (A) (A)
                 (A) (A) (A) (A) (A) (A) (A) (A) (A) (A) (A) (A)
                 (A) (A) (A) (A) (A) (A) (A) (A) (A) (A) (A) (A)
                 (A) (A) (A) (A) (A) (A) (A) (A)
 The electronic state is 6-A.
 Alpha  occ. eigenvalues -- -256.54471 -89.15275 -30.37234 -26.18912 -26.18870
 Alpha  occ. eigenvalues --  -26.18820 -19.33356 -19.32662 -19.24467 -19.24443
 Alpha  occ. eigenvalues --  -14.55315 -14.49920 -14.49050 -14.48929 -14.48390
 Alpha  occ. eigenvalues --  -14.48031 -10.42158 -10.41932 -10.39046 -10.37948
 Alpha  occ. eigenvalues --  -10.37030 -10.36957 -10.36778 -10.36477 -10.36425
 Alpha  occ. eigenvalues --  -10.36307 -10.36131 -10.36050 -10.35820 -10.34131
 Alpha  occ. eigenvalues --  -10.34108 -10.33874 -10.33397 -10.33361 -10.33223
 Alpha  occ. eigenvalues --  -10.33130 -10.33103 -10.32895 -10.32722 -10.32585
 Alpha  occ. eigenvalues --  -10.32296 -10.31925 -10.31906 -10.31836 -10.31690
 Alpha  occ. eigenvalues --  -10.31094 -10.31043 -10.30792 -10.30617 -10.30524
 Alpha  occ. eigenvalues --  -10.30183 -10.29945 -10.29085 -10.28641 -10.28545
 Alpha  occ. eigenvalues --  -10.27932 -10.27076  -8.13035  -6.06804  -6.06355
 Alpha  occ. eigenvalues --   -6.05797  -3.79857  -2.56067  -2.55938  -2.55806
 Alpha  occ. eigenvalues --   -1.24106  -1.23144  -1.17499  -1.09312  -1.09007
 Alpha  occ. eigenvalues --   -1.08758  -1.07713  -1.07109  -1.05881  -1.02139
 Alpha  occ. eigenvalues --   -0.96840  -0.95486  -0.94910  -0.94631  -0.94109
 Alpha  occ. eigenvalues --   -0.93521  -0.91795  -0.91582  -0.91467  -0.89808
 Alpha  occ. eigenvalues --   -0.89363  -0.88779  -0.88175  -0.87756  -0.86122
 Alpha  occ. eigenvalues --   -0.84744  -0.83637  -0.82729  -0.82120  -0.81549
 Alpha  occ. eigenvalues --   -0.79972  -0.79408  -0.78937  -0.78057  -0.76282
 Alpha  occ. eigenvalues --   -0.76251  -0.75906  -0.74147  -0.73214  -0.73108
 Alpha  occ. eigenvalues --   -0.72925  -0.72457  -0.70803  -0.69865  -0.68908
 Alpha  occ. eigenvalues --   -0.67452  -0.66527  -0.65372  -0.65317  -0.64869
 Alpha  occ. eigenvalues --   -0.63213  -0.63062  -0.62665  -0.62289  -0.61998
 Alpha  occ. eigenvalues --   -0.60584  -0.60061  -0.59682  -0.59506  -0.59290
 Alpha  occ. eigenvalues --   -0.59111  -0.58935  -0.58705  -0.58578  -0.58360
 Alpha  occ. eigenvalues --   -0.58096  -0.57863  -0.57530  -0.57352  -0.57274
 Alpha  occ. eigenvalues --   -0.57131  -0.56468  -0.56291  -0.56242  -0.55915
 Alpha  occ. eigenvalues --   -0.55524  -0.55369  -0.55061  -0.54476  -0.54368
 Alpha  occ. eigenvalues --   -0.54011  -0.53647  -0.53557  -0.53305  -0.53229
 Alpha  occ. eigenvalues --   -0.53064  -0.52617  -0.52553  -0.52465  -0.52139
 Alpha  occ. eigenvalues --   -0.51545  -0.51445  -0.51324  -0.51120  -0.50899
 Alpha  occ. eigenvalues --   -0.50566  -0.50202  -0.49954  -0.49535  -0.49373
 Alpha  occ. eigenvalues --   -0.49183  -0.49002  -0.48840  -0.48736  -0.48095
 Alpha  occ. eigenvalues --   -0.47688  -0.47634  -0.47256  -0.47086  -0.46827
 Alpha  occ. eigenvalues --   -0.46759  -0.46655  -0.46082  -0.45530  -0.44925
 Alpha  occ. eigenvalues --   -0.44503  -0.44378  -0.43944  -0.43477  -0.43345
 Alpha  occ. eigenvalues --   -0.42866  -0.42813  -0.42044  -0.41665  -0.41130
 Alpha  occ. eigenvalues --   -0.39427  -0.39341  -0.38809  -0.38447  -0.38395
 Alpha  occ. eigenvalues --   -0.35673  -0.35269  -0.34903  -0.34665  -0.34488
 Alpha  occ. eigenvalues --   -0.34221  -0.33874  -0.33367  -0.33178  -0.30602
 Alpha  occ. eigenvalues --   -0.30575  -0.30037  -0.29052
 Alpha virt. eigenvalues --   -0.18461  -0.18297  -0.14199  -0.11877  -0.10217
 Alpha virt. eigenvalues --   -0.08517  -0.07817  -0.07298  -0.07179  -0.06791
 Alpha virt. eigenvalues --   -0.06400  -0.05887  -0.05604  -0.05344  -0.04994
 Alpha virt. eigenvalues --   -0.04583  -0.04000  -0.03863  -0.03368  -0.03155
 Alpha virt. eigenvalues --   -0.02955  -0.02422  -0.02380  -0.01707  -0.01539
 Alpha virt. eigenvalues --   -0.01347  -0.00991  -0.00886  -0.00599  -0.00331
 Alpha virt. eigenvalues --   -0.00221   0.00130   0.00311   0.00594   0.00834
 Alpha virt. eigenvalues --    0.01496   0.01680   0.01897   0.02321   0.02352
 Alpha virt. eigenvalues --    0.02674   0.02955   0.03082   0.03164   0.03522
 Alpha virt. eigenvalues --    0.03664   0.03895   0.04146   0.04353   0.04413
 Alpha virt. eigenvalues --    0.04624   0.04860   0.05140   0.05187   0.05555
 Alpha virt. eigenvalues --    0.05669   0.05785   0.05854   0.05963   0.06303
 Alpha virt. eigenvalues --    0.06413   0.06595   0.06844   0.07009   0.07232
 Alpha virt. eigenvalues --    0.07398   0.07484   0.07652   0.08037   0.08344
 Alpha virt. eigenvalues --    0.08497   0.08579   0.08843   0.09290   0.09517
 Alpha virt. eigenvalues --    0.10065   0.10249   0.10351   0.10433   0.10566
 Alpha virt. eigenvalues --    0.10772   0.11072   0.11368   0.11435   0.11606
 Alpha virt. eigenvalues --    0.11906   0.12003   0.12112   0.12372   0.12395
 Alpha virt. eigenvalues --    0.12582   0.12697   0.13164   0.13390   0.13568
 Alpha virt. eigenvalues --    0.13643   0.13758   0.14239   0.14370   0.14546
 Alpha virt. eigenvalues --    0.14675   0.14854   0.14912   0.15057   0.15381
 Alpha virt. eigenvalues --    0.15546   0.15631   0.15934   0.16065   0.16402
 Alpha virt. eigenvalues --    0.16515   0.16682   0.16812   0.16994   0.17376
 Alpha virt. eigenvalues --    0.17441   0.17583   0.17697   0.17786   0.18072
 Alpha virt. eigenvalues --    0.18264   0.18433   0.18565   0.18832   0.18948
 Alpha virt. eigenvalues --    0.19399   0.19621   0.19683   0.20046   0.20270
 Alpha virt. eigenvalues --    0.20379   0.20869   0.20964   0.21322   0.21541
 Alpha virt. eigenvalues --    0.21673   0.21874   0.22399   0.22492   0.22815
 Alpha virt. eigenvalues --    0.22884   0.23248   0.23389   0.23694   0.23902
 Alpha virt. eigenvalues --    0.24167   0.24279   0.24372   0.24901   0.25189
 Alpha virt. eigenvalues --    0.25311   0.25456   0.25589   0.25955   0.26084
 Alpha virt. eigenvalues --    0.26349   0.26405   0.26986   0.27041   0.27208
 Alpha virt. eigenvalues --    0.27576   0.27886   0.28063   0.28201   0.28396
 Alpha virt. eigenvalues --    0.28554   0.28755   0.28905   0.29033   0.29208
 Alpha virt. eigenvalues --    0.29339   0.29652   0.29684   0.30240   0.30308
 Alpha virt. eigenvalues --    0.30457   0.30691   0.30796   0.31084   0.31463
 Alpha virt. eigenvalues --    0.31517   0.31653   0.31933   0.32248   0.32465
 Alpha virt. eigenvalues --    0.32717   0.32834   0.33048   0.33210   0.33295
 Alpha virt. eigenvalues --    0.33440   0.33606   0.33806   0.34011   0.34267
 Alpha virt. eigenvalues --    0.34500   0.34556   0.34768   0.35027   0.35243
 Alpha virt. eigenvalues --    0.35376   0.35440   0.35578   0.35659   0.36050
 Alpha virt. eigenvalues --    0.36206   0.36540   0.36622   0.36670   0.36851
 Alpha virt. eigenvalues --    0.36925   0.37144   0.37281   0.37529   0.37704
 Alpha virt. eigenvalues --    0.37798   0.37926   0.38005   0.38198   0.38412
 Alpha virt. eigenvalues --    0.38563   0.38748   0.38837   0.39171   0.39336
 Alpha virt. eigenvalues --    0.39460   0.39693   0.39771   0.40109   0.40162
 Alpha virt. eigenvalues --    0.40311   0.40331   0.40670   0.40747   0.41011
 Alpha virt. eigenvalues --    0.41227   0.41399   0.41450   0.41651   0.41742
 Alpha virt. eigenvalues --    0.41968   0.42099   0.42287   0.42503   0.42599
 Alpha virt. eigenvalues --    0.42836   0.43119   0.43286   0.43502   0.43590
 Alpha virt. eigenvalues --    0.43798   0.43944   0.44237   0.44286   0.44387
 Alpha virt. eigenvalues --    0.44440   0.44581   0.44746   0.44803   0.45209
 Alpha virt. eigenvalues --    0.45345   0.45547   0.45664   0.45828   0.46078
 Alpha virt. eigenvalues --    0.46426   0.46540   0.46760   0.46861   0.47055
 Alpha virt. eigenvalues --    0.47217   0.47297   0.47526   0.47955   0.48015
 Alpha virt. eigenvalues --    0.48170   0.48485   0.48519   0.48827   0.48916
 Alpha virt. eigenvalues --    0.49183   0.49701   0.49785   0.50028   0.50291
 Alpha virt. eigenvalues --    0.50462   0.50729   0.50847   0.50951   0.50987
 Alpha virt. eigenvalues --    0.51238   0.51438   0.51872   0.52102   0.52229
 Alpha virt. eigenvalues --    0.52428   0.52737   0.53131   0.53309   0.53398
 Alpha virt. eigenvalues --    0.53631   0.54051   0.54246   0.54652   0.54815
 Alpha virt. eigenvalues --    0.55071   0.55441   0.55563   0.55603   0.55793
 Alpha virt. eigenvalues --    0.56065   0.56448   0.56752   0.56997   0.57385
 Alpha virt. eigenvalues --    0.57564   0.57950   0.58345   0.58474   0.58714
 Alpha virt. eigenvalues --    0.58792   0.58949   0.59397   0.59730   0.59900
 Alpha virt. eigenvalues --    0.60157   0.60488   0.60719   0.60781   0.60827
 Alpha virt. eigenvalues --    0.61279   0.61384   0.61807   0.62115   0.62182
 Alpha virt. eigenvalues --    0.62548   0.62807   0.63009   0.63392   0.63540
 Alpha virt. eigenvalues --    0.63906   0.64029   0.64699   0.64811   0.65015
 Alpha virt. eigenvalues --    0.65476   0.65689   0.66035   0.66157   0.66575
 Alpha virt. eigenvalues --    0.66915   0.67361   0.67494   0.67565   0.67910
 Alpha virt. eigenvalues --    0.68412   0.68544   0.69013   0.69290   0.69709
 Alpha virt. eigenvalues --    0.69939   0.70301   0.70628   0.70729   0.70943
 Alpha virt. eigenvalues --    0.71190   0.71591   0.72047   0.72268   0.72676
 Alpha virt. eigenvalues --    0.72747   0.73165   0.73518   0.73883   0.74196
 Alpha virt. eigenvalues --    0.74358   0.74700   0.74801   0.75293   0.75663
 Alpha virt. eigenvalues --    0.75967   0.76020   0.76277   0.76587   0.76997
 Alpha virt. eigenvalues --    0.77245   0.77517   0.77723   0.78063   0.78296
 Alpha virt. eigenvalues --    0.78514   0.79011   0.79637   0.79823   0.80046
 Alpha virt. eigenvalues --    0.80077   0.80140   0.80610   0.80898   0.80957
 Alpha virt. eigenvalues --    0.81354   0.81754   0.81974   0.82243   0.82695
 Alpha virt. eigenvalues --    0.82794   0.83178   0.83286   0.83473   0.83775
 Alpha virt. eigenvalues --    0.83896   0.84268   0.84620   0.84850   0.85139
 Alpha virt. eigenvalues --    0.85675   0.85781   0.85878   0.86190   0.86340
 Alpha virt. eigenvalues --    0.86570   0.86682   0.87109   0.87352   0.87386
 Alpha virt. eigenvalues --    0.87818   0.88122   0.88389   0.88528   0.88741
 Alpha virt. eigenvalues --    0.88992   0.89191   0.89570   0.89705   0.89938
 Alpha virt. eigenvalues --    0.90359   0.90448   0.90853   0.91184   0.91338
 Alpha virt. eigenvalues --    0.91592   0.92063   0.92472   0.92479   0.92667
 Alpha virt. eigenvalues --    0.92932   0.93076   0.93620   0.94051   0.94175
 Alpha virt. eigenvalues --    0.94643   0.95014   0.95194   0.95260   0.95396
 Alpha virt. eigenvalues --    0.95912   0.96154   0.96580   0.96865   0.97153
 Alpha virt. eigenvalues --    0.97478   0.97863   0.98022   0.98101   0.98265
 Alpha virt. eigenvalues --    0.98833   0.99055   0.99249   0.99504   1.00266
 Alpha virt. eigenvalues --    1.00315   1.00692   1.00813   1.01204   1.01447
 Alpha virt. eigenvalues --    1.02150   1.02230   1.02421   1.02619   1.03287
 Alpha virt. eigenvalues --    1.03394   1.03839   1.03965   1.04418   1.04623
 Alpha virt. eigenvalues --    1.04932   1.05250   1.05588   1.05841   1.06089
 Alpha virt. eigenvalues --    1.06198   1.07122   1.07363   1.07571   1.07977
 Alpha virt. eigenvalues --    1.08313   1.08788   1.09413   1.09468   1.09606
 Alpha virt. eigenvalues --    1.10033   1.10108   1.10479   1.10784   1.11222
 Alpha virt. eigenvalues --    1.11862   1.11983   1.12107   1.12716   1.12892
 Alpha virt. eigenvalues --    1.13061   1.13798   1.14006   1.14298   1.14622
 Alpha virt. eigenvalues --    1.14796   1.15244   1.15378   1.15984   1.16400
 Alpha virt. eigenvalues --    1.16638   1.16787   1.17409   1.17482   1.17873
 Alpha virt. eigenvalues --    1.18220   1.18622   1.18950   1.19069   1.19340
 Alpha virt. eigenvalues --    1.19459   1.19750   1.20138   1.20692   1.21005
 Alpha virt. eigenvalues --    1.21194   1.21496   1.22155   1.22528   1.22551
 Alpha virt. eigenvalues --    1.23126   1.23167   1.23809   1.24384   1.24567
 Alpha virt. eigenvalues --    1.24749   1.25392   1.25984   1.26422   1.26728
 Alpha virt. eigenvalues --    1.26911   1.26957   1.27314   1.27569   1.28148
 Alpha virt. eigenvalues --    1.28188   1.28941   1.29287   1.29904   1.30288
 Alpha virt. eigenvalues --    1.31287   1.31361   1.31851   1.32209   1.32570
 Alpha virt. eigenvalues --    1.33230   1.33443   1.33714   1.33882   1.34431
 Alpha virt. eigenvalues --    1.35036   1.35064   1.35440   1.35719   1.36188
 Alpha virt. eigenvalues --    1.36371   1.36788   1.37068   1.37478   1.37689
 Alpha virt. eigenvalues --    1.37983   1.38343   1.38409   1.38734   1.39555
 Alpha virt. eigenvalues --    1.39849   1.39993   1.40118   1.40626   1.40849
 Alpha virt. eigenvalues --    1.41132   1.41218   1.41934   1.42240   1.42513
 Alpha virt. eigenvalues --    1.43257   1.43433   1.43629   1.43897   1.44088
 Alpha virt. eigenvalues --    1.44529   1.44680   1.44812   1.45087   1.45330
 Alpha virt. eigenvalues --    1.45704   1.46042   1.46220   1.46697   1.47001
 Alpha virt. eigenvalues --    1.47286   1.47368   1.47627   1.48115   1.48188
 Alpha virt. eigenvalues --    1.48353   1.48563   1.48726   1.48870   1.49239
 Alpha virt. eigenvalues --    1.49325   1.49575   1.49767   1.50110   1.50324
 Alpha virt. eigenvalues --    1.50690   1.50909   1.51015   1.51244   1.51424
 Alpha virt. eigenvalues --    1.51643   1.51823   1.51943   1.52499   1.52733
 Alpha virt. eigenvalues --    1.53156   1.53549   1.53670   1.53782   1.53839
 Alpha virt. eigenvalues --    1.54184   1.54397   1.54589   1.55117   1.55362
 Alpha virt. eigenvalues --    1.55449   1.55585   1.55772   1.56334   1.56686
 Alpha virt. eigenvalues --    1.56822   1.57163   1.57598   1.57710   1.58040
 Alpha virt. eigenvalues --    1.58361   1.58565   1.58830   1.59236   1.59385
 Alpha virt. eigenvalues --    1.59928   1.59934   1.60199   1.60424   1.60790
 Alpha virt. eigenvalues --    1.61337   1.61501   1.61753   1.61860   1.62305
 Alpha virt. eigenvalues --    1.62347   1.62968   1.63002   1.63571   1.63714
 Alpha virt. eigenvalues --    1.63801   1.64071   1.64739   1.64843   1.64958
 Alpha virt. eigenvalues --    1.65244   1.65584   1.65871   1.66212   1.66524
 Alpha virt. eigenvalues --    1.66901   1.67277   1.67353   1.67504   1.67952
 Alpha virt. eigenvalues --    1.68495   1.68739   1.69135   1.69321   1.69613
 Alpha virt. eigenvalues --    1.69688   1.69952   1.70378   1.70720   1.71110
 Alpha virt. eigenvalues --    1.71767   1.72037   1.72365   1.72768   1.73049
 Alpha virt. eigenvalues --    1.73453   1.73877   1.74316   1.74534   1.74704
 Alpha virt. eigenvalues --    1.74933   1.75224   1.75768   1.76395   1.76417
 Alpha virt. eigenvalues --    1.76940   1.77051   1.77220   1.78159   1.78353
 Alpha virt. eigenvalues --    1.78606   1.78892   1.79101   1.79323   1.79889
 Alpha virt. eigenvalues --    1.80171   1.80527   1.80981   1.81148   1.81962
 Alpha virt. eigenvalues --    1.82263   1.82658   1.82990   1.83421   1.83575
 Alpha virt. eigenvalues --    1.83760   1.83823   1.84446   1.84637   1.84891
 Alpha virt. eigenvalues --    1.85221   1.85405   1.85795   1.85999   1.86426
 Alpha virt. eigenvalues --    1.86608   1.86722   1.87099   1.87297   1.87731
 Alpha virt. eigenvalues --    1.87957   1.88265   1.88693   1.89005   1.89484
 Alpha virt. eigenvalues --    1.89783   1.89842   1.90020   1.90382   1.90842
 Alpha virt. eigenvalues --    1.91398   1.91758   1.91917   1.92521   1.92673
 Alpha virt. eigenvalues --    1.93089   1.93376   1.93717   1.94222   1.94472
 Alpha virt. eigenvalues --    1.94719   1.94936   1.95372   1.96204   1.96435
 Alpha virt. eigenvalues --    1.96986   1.97174   1.97321   1.97426   1.97702
 Alpha virt. eigenvalues --    1.97957   1.98477   1.98704   1.99165   1.99411
 Alpha virt. eigenvalues --    2.00107   2.00288   2.00578   2.01026   2.01205
 Alpha virt. eigenvalues --    2.01587   2.01953   2.02474   2.03132   2.03440
 Alpha virt. eigenvalues --    2.03672   2.03990   2.04165   2.04469   2.04689
 Alpha virt. eigenvalues --    2.05009   2.05163   2.05687   2.05734   2.06334
 Alpha virt. eigenvalues --    2.06656   2.06712   2.07004   2.07606   2.07817
 Alpha virt. eigenvalues --    2.07935   2.08783   2.09094   2.09382   2.09725
 Alpha virt. eigenvalues --    2.09973   2.10054   2.10445   2.10788   2.11217
 Alpha virt. eigenvalues --    2.11913   2.12280   2.12706   2.12752   2.12987
 Alpha virt. eigenvalues --    2.13254   2.13770   2.13954   2.14011   2.14748
 Alpha virt. eigenvalues --    2.15136   2.15465   2.15747   2.15958   2.16561
 Alpha virt. eigenvalues --    2.16889   2.17388   2.17740   2.18467   2.18815
 Alpha virt. eigenvalues --    2.19074   2.19347   2.20194   2.20298   2.20594
 Alpha virt. eigenvalues --    2.20816   2.21128   2.21476   2.21925   2.22179
 Alpha virt. eigenvalues --    2.22220   2.22906   2.23353   2.23423   2.24062
 Alpha virt. eigenvalues --    2.24494   2.24865   2.25244   2.25696   2.25913
 Alpha virt. eigenvalues --    2.26430   2.26581   2.26670   2.27151   2.27234
 Alpha virt. eigenvalues --    2.27468   2.27853   2.28253   2.28350   2.28540
 Alpha virt. eigenvalues --    2.28908   2.29510   2.29788   2.29933   2.29942
 Alpha virt. eigenvalues --    2.30379   2.30585   2.31097   2.31415   2.31889
 Alpha virt. eigenvalues --    2.31974   2.32533   2.32825   2.33058   2.33329
 Alpha virt. eigenvalues --    2.33766   2.34194   2.34698   2.34964   2.35362
 Alpha virt. eigenvalues --    2.35920   2.36121   2.36277   2.36744   2.36948
 Alpha virt. eigenvalues --    2.37429   2.37736   2.38158   2.38226   2.38586
 Alpha virt. eigenvalues --    2.39173   2.39852   2.40140   2.40336   2.40804
 Alpha virt. eigenvalues --    2.41125   2.41471   2.41638   2.41876   2.42365
 Alpha virt. eigenvalues --    2.42817   2.43153   2.43524   2.43743   2.44101
 Alpha virt. eigenvalues --    2.44458   2.44630   2.45037   2.45795   2.46116
 Alpha virt. eigenvalues --    2.46590   2.46872   2.47075   2.47417   2.47626
 Alpha virt. eigenvalues --    2.47835   2.48281   2.48378   2.49036   2.49223
 Alpha virt. eigenvalues --    2.49516   2.49886   2.50191   2.50448   2.50748
 Alpha virt. eigenvalues --    2.51079   2.51364   2.51403   2.51654   2.52133
 Alpha virt. eigenvalues --    2.52668   2.52732   2.53060   2.53225   2.53559
 Alpha virt. eigenvalues --    2.53838   2.54175   2.54463   2.54734   2.54829
 Alpha virt. eigenvalues --    2.55044   2.55680   2.55954   2.56415   2.56509
 Alpha virt. eigenvalues --    2.57062   2.57221   2.57368   2.57648   2.58056
 Alpha virt. eigenvalues --    2.58349   2.58428   2.58710   2.58889   2.59238
 Alpha virt. eigenvalues --    2.59903   2.60281   2.60326   2.60886   2.61071
 Alpha virt. eigenvalues --    2.61250   2.61489   2.61715   2.61980   2.62123
 Alpha virt. eigenvalues --    2.62786   2.62865   2.63291   2.63772   2.64062
 Alpha virt. eigenvalues --    2.64369   2.64515   2.65042   2.65267   2.65554
 Alpha virt. eigenvalues --    2.65712   2.65912   2.65999   2.66332   2.66429
 Alpha virt. eigenvalues --    2.67029   2.67491   2.67677   2.67882   2.68113
 Alpha virt. eigenvalues --    2.68442   2.68744   2.68996   2.69459   2.69702
 Alpha virt. eigenvalues --    2.69960   2.70289   2.70419   2.70794   2.71258
 Alpha virt. eigenvalues --    2.71694   2.71867   2.72063   2.72545   2.72903
 Alpha virt. eigenvalues --    2.73378   2.73608   2.73683   2.74413   2.74824
 Alpha virt. eigenvalues --    2.74928   2.75028   2.75455   2.75781   2.76047
 Alpha virt. eigenvalues --    2.76180   2.76336   2.76912   2.77693   2.78196
 Alpha virt. eigenvalues --    2.78710   2.79026   2.79044   2.79186   2.79648
 Alpha virt. eigenvalues --    2.80006   2.80398   2.80551   2.80850   2.81148
 Alpha virt. eigenvalues --    2.81349   2.81762   2.82497   2.82902   2.83119
 Alpha virt. eigenvalues --    2.83563   2.83833   2.84318   2.84511   2.84987
 Alpha virt. eigenvalues --    2.85270   2.85939   2.86111   2.86299   2.86627
 Alpha virt. eigenvalues --    2.87124   2.87347   2.87698   2.88118   2.88644
 Alpha virt. eigenvalues --    2.88723   2.88977   2.89248   2.89508   2.89949
 Alpha virt. eigenvalues --    2.90097   2.90367   2.90619   2.90736   2.91098
 Alpha virt. eigenvalues --    2.91273   2.91869   2.91978   2.92547   2.92757
 Alpha virt. eigenvalues --    2.93030   2.93333   2.93614   2.93926   2.94223
 Alpha virt. eigenvalues --    2.94417   2.94667   2.94869   2.95245   2.95764
 Alpha virt. eigenvalues --    2.96105   2.96278   2.96607   2.96983   2.97085
 Alpha virt. eigenvalues --    2.97444   2.97777   2.98680   2.98741   2.99108
 Alpha virt. eigenvalues --    2.99270   2.99428   2.99980   3.00264   3.00524
 Alpha virt. eigenvalues --    3.00660   3.00937   3.01331   3.01426   3.01878
 Alpha virt. eigenvalues --    3.02101   3.02570   3.02837   3.02889   3.03423
 Alpha virt. eigenvalues --    3.03518   3.03613   3.03816   3.04388   3.04583
 Alpha virt. eigenvalues --    3.04890   3.05013   3.05058   3.05540   3.05808
 Alpha virt. eigenvalues --    3.05880   3.06174   3.06478   3.06664   3.06859
 Alpha virt. eigenvalues --    3.07104   3.07574   3.07615   3.07839   3.07988
 Alpha virt. eigenvalues --    3.08140   3.08608   3.08895   3.09162   3.09196
 Alpha virt. eigenvalues --    3.09743   3.09830   3.10417   3.10542   3.10659
 Alpha virt. eigenvalues --    3.10864   3.11006   3.11410   3.11905   3.12068
 Alpha virt. eigenvalues --    3.12475   3.12649   3.13280   3.13326   3.13556
 Alpha virt. eigenvalues --    3.13893   3.14004   3.14506   3.14672   3.15056
 Alpha virt. eigenvalues --    3.15252   3.15422   3.16092   3.16297   3.16421
 Alpha virt. eigenvalues --    3.16844   3.17050   3.17273   3.17666   3.18004
 Alpha virt. eigenvalues --    3.18064   3.18398   3.18600   3.18833   3.19000
 Alpha virt. eigenvalues --    3.19049   3.19101   3.19506   3.20253   3.20352
 Alpha virt. eigenvalues --    3.20615   3.20897   3.21102   3.21617   3.21923
 Alpha virt. eigenvalues --    3.21980   3.22077   3.22329   3.22760   3.22973
 Alpha virt. eigenvalues --    3.23188   3.23724   3.23872   3.24194   3.24345
 Alpha virt. eigenvalues --    3.24357   3.24613   3.25156   3.25314   3.25616
 Alpha virt. eigenvalues --    3.25740   3.26001   3.26323   3.26445   3.26993
 Alpha virt. eigenvalues --    3.27041   3.27357   3.27605   3.27820   3.27869
 Alpha virt. eigenvalues --    3.28313   3.28505   3.28672   3.28857   3.28911
 Alpha virt. eigenvalues --    3.29100   3.29744   3.30028   3.30079   3.30190
 Alpha virt. eigenvalues --    3.30464   3.30827   3.30958   3.31342   3.31510
 Alpha virt. eigenvalues --    3.32243   3.32296   3.32536   3.32653   3.32837
 Alpha virt. eigenvalues --    3.33353   3.33503   3.33899   3.34101   3.34223
 Alpha virt. eigenvalues --    3.34409   3.34835   3.35051   3.35211   3.35332
 Alpha virt. eigenvalues --    3.35539   3.35687   3.36150   3.36445   3.36687
 Alpha virt. eigenvalues --    3.36784   3.37317   3.37571   3.37818   3.38153
 Alpha virt. eigenvalues --    3.38580   3.38899   3.39236   3.39395   3.39611
 Alpha virt. eigenvalues --    3.39798   3.40060   3.40324   3.40997   3.41168
 Alpha virt. eigenvalues --    3.41300   3.41431   3.41876   3.42271   3.42282
 Alpha virt. eigenvalues --    3.42892   3.43147   3.43335   3.43920   3.44261
 Alpha virt. eigenvalues --    3.44916   3.45016   3.45393   3.45448   3.46096
 Alpha virt. eigenvalues --    3.46366   3.46480   3.46729   3.47116   3.47430
 Alpha virt. eigenvalues --    3.47704   3.48113   3.48351   3.48376   3.49271
 Alpha virt. eigenvalues --    3.49584   3.49798   3.50053   3.50570   3.50903
 Alpha virt. eigenvalues --    3.51179   3.51623   3.51625   3.51923   3.52552
 Alpha virt. eigenvalues --    3.53000   3.53255   3.53554   3.53634   3.53786
 Alpha virt. eigenvalues --    3.54331   3.54770   3.55118   3.56053   3.56126
 Alpha virt. eigenvalues --    3.56162   3.56556   3.56561   3.57233   3.57518
 Alpha virt. eigenvalues --    3.57683   3.57977   3.58140   3.58602   3.58806
 Alpha virt. eigenvalues --    3.59283   3.59432   3.59900   3.60402   3.60888
 Alpha virt. eigenvalues --    3.61139   3.61384   3.61677   3.62169   3.62284
 Alpha virt. eigenvalues --    3.62928   3.63242   3.63576   3.63930   3.64599
 Alpha virt. eigenvalues --    3.64735   3.65078   3.65466   3.65969   3.66470
 Alpha virt. eigenvalues --    3.66866   3.67288   3.67650   3.68201   3.68550
 Alpha virt. eigenvalues --    3.69245   3.69706   3.69879   3.70510   3.71031
 Alpha virt. eigenvalues --    3.71204   3.71457   3.71912   3.72498   3.72604
 Alpha virt. eigenvalues --    3.72929   3.73301   3.73661   3.74644   3.74861
 Alpha virt. eigenvalues --    3.75215   3.75523   3.76210   3.76440   3.76718
 Alpha virt. eigenvalues --    3.77031   3.77466   3.77683   3.78059   3.78446
 Alpha virt. eigenvalues --    3.78747   3.79200   3.79499   3.79799   3.80691
 Alpha virt. eigenvalues --    3.80753   3.81265   3.81555   3.82077   3.82309
 Alpha virt. eigenvalues --    3.82668   3.83565   3.83858   3.84325   3.84411
 Alpha virt. eigenvalues --    3.84586   3.84886   3.85395   3.85957   3.86372
 Alpha virt. eigenvalues --    3.87018   3.87497   3.87692   3.87796   3.88527
 Alpha virt. eigenvalues --    3.88741   3.89150   3.89197   3.89732   3.89819
 Alpha virt. eigenvalues --    3.91089   3.91554   3.91885   3.92177   3.93008
 Alpha virt. eigenvalues --    3.93282   3.93755   3.94102   3.95095   3.95620
 Alpha virt. eigenvalues --    3.96051   3.96536   3.96955   3.97623   3.98103
 Alpha virt. eigenvalues --    3.98510   3.99474   4.01088   4.01248   4.01572
 Alpha virt. eigenvalues --    4.01837   4.02483   4.02867   4.03265   4.03573
 Alpha virt. eigenvalues --    4.03882   4.04807   4.05352   4.05562   4.05632
 Alpha virt. eigenvalues --    4.06648   4.06985   4.07520   4.07984   4.08257
 Alpha virt. eigenvalues --    4.08529   4.08915   4.09047   4.09342   4.10014
 Alpha virt. eigenvalues --    4.10749   4.10936   4.11115   4.11726   4.12609
 Alpha virt. eigenvalues --    4.12695   4.13415   4.13644   4.14105   4.14494
 Alpha virt. eigenvalues --    4.14851   4.15334   4.15367   4.16254   4.16571
 Alpha virt. eigenvalues --    4.16862   4.17159   4.17733   4.18713   4.18844
 Alpha virt. eigenvalues --    4.19039   4.19503   4.20407   4.20616   4.21431
 Alpha virt. eigenvalues --    4.21819   4.22333   4.22610   4.23481   4.24060
 Alpha virt. eigenvalues --    4.24493   4.24817   4.25266   4.26131   4.26703
 Alpha virt. eigenvalues --    4.27519   4.27929   4.28411   4.29172   4.29346
 Alpha virt. eigenvalues --    4.30062   4.30545   4.30956   4.31515   4.31988
 Alpha virt. eigenvalues --    4.32181   4.32528   4.33356   4.33526   4.34610
 Alpha virt. eigenvalues --    4.35206   4.35668   4.36156   4.36465   4.37353
 Alpha virt. eigenvalues --    4.37976   4.38737   4.39790   4.40034   4.40339
 Alpha virt. eigenvalues --    4.40842   4.41063   4.42506   4.42808   4.43258
 Alpha virt. eigenvalues --    4.43528   4.44547   4.45318   4.46260   4.46513
 Alpha virt. eigenvalues --    4.46815   4.47387   4.47946   4.48771   4.48944
 Alpha virt. eigenvalues --    4.50034   4.50878   4.50975   4.51473   4.52217
 Alpha virt. eigenvalues --    4.53010   4.53451   4.53910   4.55311   4.56372
 Alpha virt. eigenvalues --    4.56688   4.57399   4.58252   4.58472   4.58826
 Alpha virt. eigenvalues --    4.59303   4.59953   4.60942   4.61789   4.62111
 Alpha virt. eigenvalues --    4.63435   4.63585   4.65060   4.65525   4.65748
 Alpha virt. eigenvalues --    4.66947   4.67542   4.67792   4.67979   4.68316
 Alpha virt. eigenvalues --    4.68752   4.69885   4.70141   4.70535   4.71180
 Alpha virt. eigenvalues --    4.72033   4.72095   4.72467   4.73118   4.73238
 Alpha virt. eigenvalues --    4.74181   4.75028   4.75283   4.76001   4.76572
 Alpha virt. eigenvalues --    4.77386   4.77943   4.78073   4.79167   4.79409
 Alpha virt. eigenvalues --    4.80854   4.81543   4.82100   4.82547   4.83311
 Alpha virt. eigenvalues --    4.83682   4.84872   4.85016   4.85955   4.86318
 Alpha virt. eigenvalues --    4.87013   4.87872   4.88803   4.89347   4.89922
 Alpha virt. eigenvalues --    4.90327   4.90950   4.91333   4.91852   4.93266
 Alpha virt. eigenvalues --    4.94447   4.95370   4.95714   4.96584   4.97630
 Alpha virt. eigenvalues --    4.99695   5.00295   5.01018   5.02333   5.03201
 Alpha virt. eigenvalues --    5.04143   5.04978   5.06579   5.07721   5.08984
 Alpha virt. eigenvalues --    5.10818   5.10900   5.11552   5.11955   5.12138
 Alpha virt. eigenvalues --    5.12899   5.13535   5.13658   5.14660   5.15337
 Alpha virt. eigenvalues --    5.16585   5.16877   5.17197   5.17680   5.18373
 Alpha virt. eigenvalues --    5.19866   5.20309   5.20494   5.21562   5.22044
 Alpha virt. eigenvalues --    5.22413   5.24236   5.25494   5.26055   5.26625
 Alpha virt. eigenvalues --    5.29750   5.30657   5.31274   5.31692   5.32606
 Alpha virt. eigenvalues --    5.33055   5.34433   5.35016   5.36047   5.36697
 Alpha virt. eigenvalues --    5.37816   5.39696   5.41582   5.42270   5.42612
 Alpha virt. eigenvalues --    5.44072   5.44937   5.45134   5.45735   5.47427
 Alpha virt. eigenvalues --    5.48709   5.49949   5.51634   5.52427   5.53422
 Alpha virt. eigenvalues --    5.53667   5.56713   5.58156   5.58344   5.58430
 Alpha virt. eigenvalues --    5.60074   5.62512   5.64549   5.66075   5.67415
 Alpha virt. eigenvalues --    5.70931   5.71543   5.72207   5.73176   5.79929
 Alpha virt. eigenvalues --    5.80674   5.81891   5.82638   5.83456   5.84930
 Alpha virt. eigenvalues --    5.85598   5.89010   5.89643   5.91588   5.93945
 Alpha virt. eigenvalues --    5.96298   5.97953   5.99820   6.00334   6.00549
 Alpha virt. eigenvalues --    6.02368   6.05218   6.08819   6.09610   6.09725
 Alpha virt. eigenvalues --    6.12528   6.14907   6.17111   6.18257   6.24282
 Alpha virt. eigenvalues --    6.25561   6.27203   6.28314   6.36768   6.37430
 Alpha virt. eigenvalues --    6.40105   6.41020   6.46273   6.47838   6.58381
 Alpha virt. eigenvalues --    6.58795   6.68557   6.68721   6.76131   6.76642
 Alpha virt. eigenvalues --    6.86445   6.86997   6.94666   6.96434   7.06212
 Alpha virt. eigenvalues --    7.06801   7.08907   7.09089   7.22861   7.25584
 Alpha virt. eigenvalues --    9.09838   9.41630   9.56119  20.13455  22.27962
 Alpha virt. eigenvalues --   22.32929  22.41138  22.43547  22.44455  22.44819
 Alpha virt. eigenvalues --   22.45223  22.48717  22.52514  22.53746  22.54506
 Alpha virt. eigenvalues --   22.55004  22.56010  22.63932  22.70162  22.73112
 Alpha virt. eigenvalues --   22.75061  22.75926  22.78785  22.84714  22.85221
 Alpha virt. eigenvalues --   22.88796  22.94755  22.96796  22.98783  23.00480
 Alpha virt. eigenvalues --   23.04270  23.06351  23.11947  23.16777  23.19354
 Alpha virt. eigenvalues --   23.22802  23.24835  23.35843  23.39193  23.47298
 Alpha virt. eigenvalues --   23.50073  23.53798  23.57392  23.63957  23.70308
 Alpha virt. eigenvalues --   32.38523  32.72976  32.85223  32.91537  32.94678
 Alpha virt. eigenvalues --   33.05084  43.86087  43.88734  43.89974  43.91814
  Beta  occ. eigenvalues -- -256.54324 -89.15186 -30.27552 -26.10813 -26.10708
  Beta  occ. eigenvalues --  -26.10662 -19.33356 -19.32662 -19.24466 -19.24443
  Beta  occ. eigenvalues --  -14.55299 -14.49577 -14.48756 -14.48645 -14.48053
  Beta  occ. eigenvalues --  -14.47728 -10.42158 -10.41932 -10.39033 -10.37920
  Beta  occ. eigenvalues --  -10.37008 -10.36938 -10.36759 -10.36463 -10.36413
  Beta  occ. eigenvalues --  -10.36294 -10.36105 -10.36021 -10.35796 -10.34077
  Beta  occ. eigenvalues --  -10.34059 -10.33874 -10.33403 -10.33331 -10.33225
  Beta  occ. eigenvalues --  -10.33099 -10.33067 -10.32897 -10.32727 -10.32553
  Beta  occ. eigenvalues --  -10.32263 -10.31923 -10.31892 -10.31835 -10.31689
  Beta  occ. eigenvalues --  -10.31093 -10.31042 -10.30790 -10.30616 -10.30523
  Beta  occ. eigenvalues --  -10.30132 -10.29948 -10.29084 -10.28623 -10.28543
  Beta  occ. eigenvalues --  -10.27929 -10.27075  -8.12931  -6.06742  -6.06262
  Beta  occ. eigenvalues --   -6.05609  -3.56869  -2.31579  -2.31138  -2.31053
  Beta  occ. eigenvalues --   -1.24105  -1.23144  -1.17328  -1.09311  -1.09005
  Beta  occ. eigenvalues --   -1.08384  -1.07355  -1.06758  -1.05531  -1.01785
  Beta  occ. eigenvalues --   -0.96547  -0.95380  -0.94827  -0.94526  -0.93994
  Beta  occ. eigenvalues --   -0.93388  -0.91740  -0.91523  -0.91402  -0.89753
  Beta  occ. eigenvalues --   -0.89241  -0.88671  -0.88072  -0.87635  -0.86055
  Beta  occ. eigenvalues --   -0.84599  -0.83536  -0.82650  -0.82037  -0.81432
  Beta  occ. eigenvalues --   -0.79851  -0.79152  -0.78842  -0.77966  -0.76180
  Beta  occ. eigenvalues --   -0.76158  -0.75547  -0.74028  -0.73160  -0.72988
  Beta  occ. eigenvalues --   -0.72838  -0.72390  -0.70435  -0.69718  -0.68509
  Beta  occ. eigenvalues --   -0.67276  -0.66379  -0.65240  -0.65158  -0.64265
  Beta  occ. eigenvalues --   -0.62967  -0.62850  -0.62155  -0.61640  -0.60316
  Beta  occ. eigenvalues --   -0.59991  -0.59633  -0.59502  -0.59189  -0.58772
  Beta  occ. eigenvalues --   -0.58697  -0.58406  -0.58390  -0.58204  -0.57914
  Beta  occ. eigenvalues --   -0.57827  -0.57495  -0.57337  -0.56980  -0.56704
  Beta  occ. eigenvalues --   -0.56276  -0.55785  -0.55019  -0.54536  -0.54325
  Beta  occ. eigenvalues --   -0.54311  -0.53934  -0.53692  -0.53651  -0.53539
  Beta  occ. eigenvalues --   -0.53041  -0.52732  -0.52562  -0.52437  -0.52106
  Beta  occ. eigenvalues --   -0.51891  -0.51651  -0.51509  -0.51180  -0.51103
  Beta  occ. eigenvalues --   -0.50751  -0.50517  -0.50122  -0.49670  -0.49556
  Beta  occ. eigenvalues --   -0.49425  -0.49163  -0.48906  -0.48885  -0.48068
  Beta  occ. eigenvalues --   -0.47796  -0.47767  -0.47405  -0.47256  -0.47177
  Beta  occ. eigenvalues --   -0.46955  -0.46770  -0.46419  -0.45933  -0.45473
  Beta  occ. eigenvalues --   -0.45049  -0.44536  -0.44236  -0.44016  -0.43445
  Beta  occ. eigenvalues --   -0.43386  -0.43152  -0.42774  -0.42745  -0.41866
  Beta  occ. eigenvalues --   -0.41611  -0.40775  -0.39423  -0.39336  -0.38856
  Beta  occ. eigenvalues --   -0.38439  -0.37280  -0.35790  -0.34966  -0.34778
  Beta  occ. eigenvalues --   -0.34611  -0.34310  -0.33782  -0.33456  -0.30581
  Beta  occ. eigenvalues --   -0.30254  -0.29833  -0.28996
  Beta virt. eigenvalues --   -0.20842  -0.20486  -0.18475  -0.16730  -0.16525
  Beta virt. eigenvalues --   -0.14431  -0.12748  -0.11779  -0.10274  -0.10040
  Beta virt. eigenvalues --   -0.07998  -0.07751  -0.07195  -0.07040  -0.06500
  Beta virt. eigenvalues --   -0.05936  -0.05714  -0.05262  -0.05037  -0.04568
  Beta virt. eigenvalues --   -0.04287  -0.03734  -0.03641  -0.03237  -0.03063
  Beta virt. eigenvalues --   -0.02777  -0.02354  -0.02224  -0.01623  -0.01494
  Beta virt. eigenvalues --   -0.01255  -0.00945  -0.00731  -0.00541  -0.00264
  Beta virt. eigenvalues --   -0.00114   0.00208   0.00362   0.00698   0.00959
  Beta virt. eigenvalues --    0.01551   0.01866   0.01959   0.02418   0.02462
  Beta virt. eigenvalues --    0.02721   0.03009   0.03150   0.03243   0.03629
  Beta virt. eigenvalues --    0.03725   0.03957   0.04222   0.04379   0.04489
  Beta virt. eigenvalues --    0.04677   0.04895   0.05185   0.05274   0.05615
  Beta virt. eigenvalues --    0.05738   0.05849   0.05911   0.06009   0.06397
  Beta virt. eigenvalues --    0.06466   0.06659   0.06876   0.07076   0.07318
  Beta virt. eigenvalues --    0.07463   0.07568   0.07706   0.08115   0.08390
  Beta virt. eigenvalues --    0.08587   0.08635   0.09018   0.09383   0.09619
  Beta virt. eigenvalues --    0.10164   0.10327   0.10486   0.10526   0.10631
  Beta virt. eigenvalues --    0.10819   0.11289   0.11435   0.11588   0.11696
  Beta virt. eigenvalues --    0.12043   0.12250   0.12356   0.12436   0.12532
  Beta virt. eigenvalues --    0.12727   0.12790   0.13262   0.13583   0.13644
  Beta virt. eigenvalues --    0.13742   0.13844   0.14392   0.14437   0.14632
  Beta virt. eigenvalues --    0.14773   0.15033   0.15116   0.15212   0.15555
  Beta virt. eigenvalues --    0.15603   0.15832   0.16017   0.16404   0.16488
  Beta virt. eigenvalues --    0.16652   0.16874   0.16962   0.17153   0.17488
  Beta virt. eigenvalues --    0.17631   0.17761   0.17857   0.17997   0.18145
  Beta virt. eigenvalues --    0.18334   0.18614   0.18688   0.18948   0.19025
  Beta virt. eigenvalues --    0.19519   0.19715   0.19818   0.20205   0.20423
  Beta virt. eigenvalues --    0.20470   0.20952   0.21031   0.21428   0.21751
  Beta virt. eigenvalues --    0.21866   0.21966   0.22593   0.22739   0.22968
  Beta virt. eigenvalues --    0.22989   0.23361   0.23571   0.23817   0.24011
  Beta virt. eigenvalues --    0.24277   0.24456   0.24555   0.25034   0.25299
  Beta virt. eigenvalues --    0.25443   0.25535   0.25737   0.26088   0.26158
  Beta virt. eigenvalues --    0.26529   0.26546   0.27118   0.27158   0.27320
  Beta virt. eigenvalues --    0.27744   0.28004   0.28188   0.28304   0.28584
  Beta virt. eigenvalues --    0.28690   0.28861   0.29038   0.29213   0.29373
  Beta virt. eigenvalues --    0.29601   0.29797   0.29962   0.30380   0.30468
  Beta virt. eigenvalues --    0.30578   0.30768   0.30991   0.31184   0.31559
  Beta virt. eigenvalues --    0.31641   0.31773   0.32137   0.32489   0.32586
  Beta virt. eigenvalues --    0.32818   0.32899   0.33349   0.33365   0.33432
  Beta virt. eigenvalues --    0.33684   0.33721   0.33878   0.34150   0.34375
  Beta virt. eigenvalues --    0.34610   0.34622   0.34848   0.35080   0.35394
  Beta virt. eigenvalues --    0.35459   0.35534   0.35729   0.35778   0.36192
  Beta virt. eigenvalues --    0.36318   0.36598   0.36712   0.36798   0.36977
  Beta virt. eigenvalues --    0.37047   0.37274   0.37407   0.37631   0.37827
  Beta virt. eigenvalues --    0.37856   0.37997   0.38089   0.38379   0.38564
  Beta virt. eigenvalues --    0.38746   0.38814   0.38908   0.39226   0.39475
  Beta virt. eigenvalues --    0.39530   0.39758   0.39868   0.40164   0.40284
  Beta virt. eigenvalues --    0.40394   0.40415   0.40743   0.40794   0.41070
  Beta virt. eigenvalues --    0.41287   0.41480   0.41558   0.41791   0.41882
  Beta virt. eigenvalues --    0.42084   0.42203   0.42352   0.42571   0.42736
  Beta virt. eigenvalues --    0.42951   0.43201   0.43359   0.43640   0.43700
  Beta virt. eigenvalues --    0.43857   0.44055   0.44360   0.44400   0.44484
  Beta virt. eigenvalues --    0.44500   0.44657   0.44854   0.44899   0.45280
  Beta virt. eigenvalues --    0.45435   0.45622   0.45751   0.45906   0.46147
  Beta virt. eigenvalues --    0.46483   0.46620   0.46877   0.46941   0.47133
  Beta virt. eigenvalues --    0.47315   0.47397   0.47696   0.48077   0.48155
  Beta virt. eigenvalues --    0.48258   0.48558   0.48650   0.48881   0.49049
  Beta virt. eigenvalues --    0.49271   0.49794   0.49898   0.50165   0.50443
  Beta virt. eigenvalues --    0.50570   0.50885   0.50978   0.51017   0.51144
  Beta virt. eigenvalues --    0.51382   0.51522   0.51955   0.52231   0.52306
  Beta virt. eigenvalues --    0.52529   0.52806   0.53326   0.53413   0.53571
  Beta virt. eigenvalues --    0.53823   0.54136   0.54401   0.54793   0.54971
  Beta virt. eigenvalues --    0.55209   0.55532   0.55686   0.55747   0.55957
  Beta virt. eigenvalues --    0.56160   0.56551   0.56867   0.57092   0.57466
  Beta virt. eigenvalues --    0.57643   0.58022   0.58445   0.58676   0.58912
  Beta virt. eigenvalues --    0.58984   0.59047   0.59535   0.59819   0.60137
  Beta virt. eigenvalues --    0.60333   0.60569   0.60816   0.60916   0.60936
[...]
  1801. RY*(   2) H  96                  0.00008     1.65677   
  1802. RY*(   3) H  96                  0.00006     2.46745   
  1803. RY*(   4) H  96                  0.00003     2.25808   
  1804. RY*(   5) H  96                  0.00001     3.04742   
  1805. RY*(   1) H  97                  0.00029     2.10417   
  1806. RY*(   2) H  97                  0.00021     2.02813   
  1807. RY*(   3) H  97                  0.00010     2.06150   
  1808. RY*(   4) H  97                  0.00008     1.61992   
  1809. RY*(   5) H  97                  0.00001     3.05731   
  1810. RY*(   1) H  98                  0.00068     0.80160   
  1811. RY*(   2) H  98                  0.00031     2.02503   
  1812. RY*(   3) H  98                  0.00022     1.72971   
  1813. RY*(   4) H  98                  0.00011     2.09824   
  1814. RY*(   5) H  98                  0.00000     3.18804   
  1815. RY*(   1) H  99                  0.00049     0.91439   
  1816. RY*(   2) H  99                  0.00035     1.92063   
  1817. RY*(   3) H  99                  0.00023     1.81434   
  1818. RY*(   4) H  99                  0.00012     2.10581   
  1819. RY*(   5) H  99                  0.00000     3.12006   
  1820. RY*(   1) H 100                  0.00038     0.97586   
  1821. RY*(   2) H 100                  0.00007     1.55585   
  1822. RY*(   3) H 100                  0.00006     2.18854   
  1823. RY*(   4) H 100                  0.00003     2.29771   
  1824. RY*(   5) H 100                  0.00000     3.01419   
  1825. RY*(   1) H 101                  0.00084     0.56751   
  1826. RY*(   2) H 101                  0.00007     2.58240   
  1827. RY*(   3) H 101                  0.00007     2.37017   
  1828. RY*(   4) H 101                  0.00004     2.39349   
  1829. RY*(   5) H 101                  0.00000     2.91520   
  1830. RY*(   1) H 102                  0.00090     0.49923   
  1831. RY*(   2) H 102                  0.00008     2.46637   
  1832. RY*(   3) H 102                  0.00007     2.52653   
  1833. RY*(   4) H 102                  0.00005     2.34929   
  1834. RY*(   5) H 102                  0.00000     2.96754   
  1835. RY*(   1) H 103                  0.00036     0.98887   
  1836. RY*(   2) H 103                  0.00006     1.52985   
  1837. RY*(   3) H 103                  0.00005     2.18501   
  1838. RY*(   4) H 103                  0.00003     2.29321   
  1839. RY*(   5) H 103                  0.00000     2.98811   
  1840. BD*(   1) C   1 - C   2          0.00662     0.28782   
  1841. BD*(   1) C   1 - H  54          0.00325     0.30770   
  1842. BD*(   1) C   1 - H  55          0.00422     0.30758   
  1843. BD*(   1) C   1 - H  56          0.00158     0.30260   
  1844. BD*(   1) C   2 - N   3          0.01349     0.32257   
  1845. BD*(   2) C   2 - N   3          0.37499    -0.14683  1850(v),190(v),1842(v)
                                                    261(g),236(g),1841(v),209(v)
                                                    239(g)
  1846. BD*(   1) C   2 - C   4          0.01043     0.48271   
  1847. BD*(   1) N   3 - C   5          0.00890     0.39773   
  1848. BD*(   1) N   3 - H  97          0.00722     0.28872   
  1849. BD*(   1) C   4 - N   6          0.00913     0.37075   
  1850. BD*(   2) C   4 - N   6          0.33089    -0.11941  1845(v),190(v),1907(r)
                                                    193(v),288(g),195(v),340(g)
                                                    1925(r),314(v)
  1851. BD*(   1) C   4 - H  57          0.00623     0.32554   
  1852. BD*(   1) C   5 - N   6          0.00939     0.42520   
  1853. BD*(   1) C   5 - H  58          0.00782     0.28095   
  1854. BD*(   1) N   6 -Fe  11          0.03573     0.24534   
  1855. BD*(   1) C   7 - C   8          0.00526     0.26389   
  1856. BD*(   1) C   7 - H  59          0.00278     0.31537   
  1857. BD*(   1) C   7 - H  60          0.00498     0.33802   
  1858. BD*(   1) C   7 - H  61          0.00425     0.31617   
  1859. BD*(   1) C   8 - S   9          0.03601     0.07021   
  1860. BD*(   1) C   8 - H  62          0.00682     0.29805   
  1861. BD*(   1) C   8 - H  63          0.00994     0.29564   
  1862. BD*(   1) S   9 - C  10          0.03117     0.06208   
  1863. BD*(   1) S   9 -Fe  11          0.03560     0.25350   
  1864. BD*(   1) C  10 - H  65          0.01607     0.26040   
  1865. BD*(   1) C  10 - H  66          0.01880     0.28337   
  1866. BD*(   1)Fe  11 - N  16          0.02853     0.29430   
  1867. BD*(   1)Fe  11 - N  27          0.02757     0.31336   
  1868. BD*(   1)Fe  11 - N  35          0.03136     0.31561   
  1869. BD*(   1)Fe  11 - N  43          0.02635     0.30936   
  1870. BD*(   1) C  12 - C  17          0.00987     0.43691   
  1871. BD*(   2) C  12 - C  17          0.19806    -0.06808  1890(v),1944(v),498(g)
                                                    1875(r),632(g),1884(r)
                                                    208(r)
  1872. BD*(   1) C  12 - C  47          0.01118     0.47279   
  1873. BD*(   1) C  12 - H  67          0.00698     0.34817   
  1874. BD*(   1) C  13 - C  20          0.00972     0.43001   
  1875. BD*(   2) C  13 - C  20          0.20253    -0.07273  1890(v),1907(v),1871(r)
                                                    525(g),208(r),1879(r)
  1876. BD*(   1) C  13 - C  28          0.01020     0.43214   
  1877. BD*(   1) C  13 - H  68          0.00762     0.33647   
  1878. BD*(   1) C  14 - C  31          0.00976     0.43960   
  1879. BD*(   2) C  14 - C  31          0.20081    -0.06878  1925(v),1911(v),1907(v)
                                                    550(g),1875(r),207(r),996(g)
  1880. BD*(   1) C  14 - C  36          0.00963     0.43612   
  1881. BD*(   1) C  14 - H  69          0.00639     0.34436   
  1882. BD*(   1) C  15 - C  39          0.00996     0.44377   
  1883. BD*(   1) C  15 - C  44          0.01021     0.47089   
  1884. BD*(   2) C  15 - C  44          0.19361    -0.05990  1947(v),202(v),1944(v)
                                                    576(g),1334(g),1871(r)
  1885. BD*(   1) C  15 - H  70          0.00663     0.34330   
  1886. BD*(   1) N  16 - C  17          0.01422     0.34839   
  1887. BD*(   1) N  16 - C  20          0.01593     0.34960   
  1888. BD*(   1) C  17 - C  18          0.01596     0.32616   
  1889. BD*(   1) C  18 - C  19          0.01424     0.43232   
  1890. BD*(   2) C  18 - C  19          0.14210    -0.06192  208(r),1871(v),1875(v)
                                                    1896(v),1898(v),1894(v)
  1891. BD*(   1) C  18 - C  22          0.01074     0.25611   
  1892. BD*(   1) C  19 - C  20          0.02933     0.31807   
  1893. BD*(   1) C  19 - C  21          0.01594     0.23685   
  1894. BD*(   1) C  21 - H  71          0.02086     0.28487   
  1895. BD*(   1) C  21 - H  72          0.02653     0.26639   
  1896. BD*(   1) C  22 - C  23          0.00482     0.27168   
  1897. BD*(   1) C  22 - H  74          0.00562     0.33082   
  1898. BD*(   1) C  22 - H  75          0.00722     0.32631   
  1899. BD*(   1) C  23 - C  24          0.03546     0.26539   
  1900. BD*(   1) C  23 - H  76          0.00600     0.31195   
  1901. BD*(   1) C  23 - H  77          0.00612     0.30916   
  1902. BD*(   1) C  24 - O  25          0.01712     0.48818   
  1903. BD*(   2) C  24 - O  25          0.11208    -0.06796  1896(v),1900(v),1905(v)
                                                    812(g)
  1904. BD*(   1) C  24 - O  26          0.03537     0.42821   
  1905. BD*(   1) O  26 - H  98          0.00706     0.31600   
  1906. BD*(   1) N  27 - C  28          0.01477     0.33418   
  1907. BD*(   2) N  27 - C  28          0.34225    -0.11950  1875(v),1911(v),1879(v)
                                                    194(v),1850(r),916(g),890(g)
                                                    195(v),525(v),207(r)
  1908. BD*(   1) N  27 - C  31          0.01442     0.33113   
  1909. BD*(   1) C  28 - C  29          0.01593     0.36274   
  1910. BD*(   1) C  29 - C  30          0.01279     0.47871   
  1911. BD*(   2) C  29 - C  30          0.12753    -0.03916  1879(v),1907(v),1918(v)
                                                    1916(v),1920(v),1915(v)
  1912. BD*(   1) C  29 - C  32          0.00790     0.27430   
  1913. BD*(   1) C  30 - C  31          0.01854     0.36741   
  1914. BD*(   1) C  30 - C  33          0.01293     0.44707   
  1915. BD*(   1) C  32 - H  78          0.00330     0.31790   
  1916. BD*(   1) C  32 - H  79          0.00424     0.31519   
  1917. BD*(   1) C  32 - H  80          0.00239     0.31833   
  1918. BD*(   1) C  33 - C  34          0.00665     0.43351   
  1919. BD*(   1) C  33 - H  81          0.01089     0.31195   
  1920. BD*(   1) C  33 - H 102          0.01154     0.30959   
  1921. BD*(   1) C  34 - H  82          0.00549     0.32691   
  1922. BD*(   1) C  34 - H  83          0.00364     0.33404   
  1923. BD*(   1) C  34 - H 103          0.00521     0.32857   
  1924. BD*(   1) N  35 - C  36          0.01408     0.33982   
  1925. BD*(   2) N  35 - C  36          0.32301    -0.10799  1879(v),1929(v),202(v)
                                                    193(v),1124(g),1099(g)
                                                    1850(r),195(v),1097(g)
  1926. BD*(   1) N  35 - C  39          0.01358     0.35270   
  1927. BD*(   1) C  36 - C  37          0.01579     0.34916   
  1928. BD*(   1) C  37 - C  38          0.01245     0.46174   
  1929. BD*(   2) C  37 - C  38          0.11422    -0.03693  1925(v),202(v),1936(v)
                                                    1938(v),1933(v)
  1930. BD*(   1) C  37 - C  40          0.00748     0.27830   
  1931. BD*(   1) C  38 - C  39          0.01750     0.36601   
  1932. BD*(   1) C  38 - C  41          0.01319     0.43016   
  1933. BD*(   1) C  40 - H  84          0.00410     0.32138   
  1934. BD*(   1) C  40 - H  85          0.00259     0.32489   
  1935. BD*(   1) C  40 - H  86          0.00386     0.32035   
  1936. BD*(   1) C  41 - C  42          0.00686     0.47212   
  1937. BD*(   1) C  41 - H  87          0.01076     0.31783   
  1938. BD*(   1) C  41 - H 101          0.01204     0.31410   
  1939. BD*(   1) C  42 - H  88          0.00596     0.33496   
  1940. BD*(   1) C  42 - H  89          0.00419     0.33967   
  1941. BD*(   1) C  42 - H 100          0.00573     0.33436   
  1942. BD*(   1) N  43 - C  44          0.01551     0.34777   
  1943. BD*(   1) N  43 - C  47          0.01561     0.36903   
  1944. BD*(   2) N  43 - C  47          0.33629    -0.10995  1871(v),1947(v),1884(v)
                                                    194(v),1410(g),195(v)
                                                    1409(g),498(v),1854(v)
                                                    1863(v),1305(g),1307(g)
                                                    1850(r)
  1945. BD*(   1) C  44 - C  45          0.01606     0.38841   
  1946. BD*(   1) C  45 - C  46          0.01079     0.49405   
  1947. BD*(   2) C  45 - C  46          0.12417    -0.03683  1884(v),1944(v),1954(v)
                                                    1952(v),1955(v)
  1948. BD*(   1) C  45 - C  48          0.00837     0.27969   
  1949. BD*(   1) C  46 - C  47          0.01634     0.40468   
  1950. BD*(   1) C  46 - C  49          0.01212     0.29331   
  1951. BD*(   1) C  48 - H  90          0.00290     0.32971   
  1952. BD*(   1) C  48 - H  91          0.00416     0.31843   
  1953. BD*(   1) C  48 - H  92          0.00271     0.31932   
  1954. BD*(   1) C  49 - C  50          0.00714     0.27670   
  1955. BD*(   1) C  49 - H  93          0.00693     0.31828   
  1956. BD*(   1) C  49 - H  94          0.00658     0.32194   
  1957. BD*(   1) C  50 - C  51          0.03513     0.27342   
  1958. BD*(   1) C  50 - H  95          0.00679     0.30845   
  1959. BD*(   1) C  50 - H  96          0.00531     0.32406   
  1960. BD*(   1) C  51 - O  52          0.03602     0.41380   
  1961. BD*(   1) C  51 - O  53          0.02033     0.47956   
  1962. BD*(   2) C  51 - O  53          0.09742    -0.06165   
  1963. BD*(   1) O  52 - H  99          0.00658     0.31839   
       -------------------------------
              Total Lewis  197.02194  ( 97.3339%)
        Valence non-Lewis    5.01427  (  2.4772%)
        Rydberg non-Lewis    0.38233  (  0.1889%)
       -------------------------------
            Total unit  1  202.41853  (100.0000%)
           Charge unit  1    2.58147

 Molecular unit  2  (H)
   207. LP*(   1) H  64                  0.29285    -0.05779  1862(r),1864(r),1865(r)
                                                    1640(g),1643(g),447(r)
                                                    1879(r),1859(r),449(r)
                                                    1642(g),448(r),1644(g)
                                                    456(r),458(r),460(r),417(r)
                                                    1863(r),1855(r),445(r)
                                                    463(r),462(r),1650(r)
                                                    1645(r),470(r),422(r),419(r)
                                                    451(r),1869(r),461(r),194(r)
                                                    391(r),453(r),465(r),994(r)
                                                    195(r),1854(r),916(r)
                                                    1868(r),1649(r),1648(r)
                                                    1907(r),420(r)
  1640. RY*(   1) H  64                  0.00030     1.36126   
  1641. RY*(   2) H  64                  0.00016     2.16714   
  1642. RY*(   3) H  64                  0.00012     2.24484   
  1643. RY*(   4) H  64                  0.00004     1.27690   
  1644. RY*(   5) H  64                  0.00001     3.03687   
       -------------------------------
              Total Lewis    0.00000  (  0.0000%)
        Valence non-Lewis    0.29285  ( 99.7870%)
        Rydberg non-Lewis    0.00063  (  0.2130%)
       -------------------------------
            Total unit  2    0.29347  (100.0000%)
           Charge unit  2    0.20653

 Molecular unit  3  (H)
   208. LP*(   1) H  73                  0.28697    -0.06168  1890(r),1895(r),1894(r)
                                                    1893(r),1685(g),1687(g)
                                                    1875(r),749(r),733(r)
                                                    1892(r),741(r),732(r),750(r)
                                                    735(r),745(r),743(r),740(r)
                                                    1871(r),746(r),739(r)
                                                    1891(r),751(r),654(r),734(r)
                                                    1874(r),737(r),1677(r)
                                                    690(r),697(r),683(r),1888(r)
                                                    1679(r),744(r),738(r)
                                                    1675(r),685(r)
  1685. RY*(   1) H  73                  0.00063     1.37744   
  1686. RY*(   2) H  73                  0.00017     2.18024   
  1687. RY*(   3) H  73                  0.00009     2.33159   
  1688. RY*(   4) H  73                  0.00003     1.39017   
  1689. RY*(   5) H  73                  0.00000     2.76876   
       -------------------------------
              Total Lewis    0.00000  (  0.0000%)
        Valence non-Lewis    0.28697  ( 99.6782%)
        Rydberg non-Lewis    0.00093  (  0.3218%)
       -------------------------------
            Total unit  3    0.28790  (100.0000%)
           Charge unit  3    0.21210
 1\1\GINC-NODE544\SP\UPBE1PBE\def2TZVP\C41H50Fe1N6O4S1(1+,6)\KLEICH\01-
 Oct-2022\0\\# PBE1PBE/def2TZVP empiricaldispersion=GD3BJ int=(grid=ult
 rafine) geom=check pop=nbo\\1f1f_III_H\\1,6\C,0,17.746,-1.573,14.073\C
 ,0,19.193,-1.82,13.766\N,0,19.739,-3.084,13.674\C,0,20.216,-0.957,13.5
 61\C,0,21.032,-2.989,13.429\N,0,21.348,-1.709,13.356\C,0,26.954,-1.513
 ,11.283\C,0,26.872,-0.44,12.354\S,0,25.223,0.143,12.791\C,0,25.647,1.5
 16,13.893\Fe,0,23.155,-0.817,13.27\C,0,24.82,-3.613,14.279\C,0,22.887,
 0.274,16.485\C,0,21.839,2.193,12.107\C,0,22.984,-2.09,10.08\N,0,23.692
 ,-1.546,15.023\C,0,24.377,-2.734,15.277\C,0,24.705,-2.89,16.725\C,0,24
 .279,-1.703,17.32\C,0,23.578,-0.926,16.264\C,0,24.488,-1.268,18.793\C,
 0,25.234,-4.188,17.406\C,0,24.275,-5.336,17.098\C,0,24.692,-6.674,17.6
 94\O,0,25.782,-7.178,17.357\O,0,23.916,-7.237,18.494\N,0,22.421,0.836,
 14.114\C,0,22.338,1.097,15.49\C,0,21.784,2.43,15.73\C,0,21.573,3.003,1
 4.497\C,0,21.95,2.006,13.491\C,0,21.418,3.053,17.081\C,0,21.102,4.304,
 14.272\C,0,21.977,5.385,14.378\N,0,22.588,-0.09,11.473\C,0,22.143,1.20
 9,11.155\C,0,21.74,1.292,9.736\C,0,21.822,-0.001,9.23\C,0,22.445,-0.81
 4,10.283\C,0,21.434,2.543,8.906\C,0,21.411,-0.436,7.944\C,0,22.123,-0.
 078,6.828\N,0,23.773,-2.479,12.38\C,0,23.641,-2.843,11.034\C,0,24.376,
 -4.055,10.759\C,0,24.914,-4.456,11.946\C,0,24.528,-3.497,12.936\C,0,24
 .611,-4.72,9.402\C,0,25.836,-5.636,12.228\C,0,27.212,-5.383,11.637\C,0
 ,28.251,-6.376,12.122\O,0,28.671,-6.286,13.304\O,0,28.641,-7.254,11.32
 \H,0,17.66685698,-0.88743069,14.89069866\H,0,17.26446035,-1.15843219,1
 3.21209751\H,0,17.27427527,-2.49690725,14.33524258\H,0,20.15458612,0.1
 1123417,13.55897442\H,0,21.70887138,-3.80908731,13.30982811\H,0,27.950
 92075,-1.89935119,11.24078886\H,0,26.27424493,-2.30497904,11.51880126\
 H,0,26.69462441,-1.09087413,10.33461503\H,0,27.36952853,0.41091235,11.
 93769059\H,0,27.25170312,-0.90019582,13.24222596\H,0,25.07237296,2.346
 54736,14.24640464\H,0,25.52401124,2.05297113,12.97570192\H,0,24.944832
 45,0.99831047,14.51256298\H,0,25.43148164,-4.43702489,14.58227081\H,0,
 22.76806888,0.58942604,17.50051061\H,0,21.50148805,3.14524249,11.75455
 154\H,0,22.87834155,-2.51764769,9.1048827\H,0,23.90825383,-0.6406395,1
 9.43737037\H,0,24.63248393,-0.32667414,18.3052193\H,0,23.61949653,-1.8
 8224725,18.90833448\H,0,25.1929533,-4.02362619,18.46250197\H,0,26.1658
 1048,-4.42719282,16.93758136\H,0,24.30982526,-5.46705355,16.03662722\H
 ,0,23.35228676,-5.08001763,17.5754655\H,0,21.74558828,4.0713457,17.104
 62085\H,0,20.35704278,3.01643157,17.21491238\H,0,21.89575657,2.5063224
 6,17.86699766\H,0,20.68918691,4.32564604,13.28507711\H,0,22.96546726,5
 .07088439,14.11500977\H,0,21.66254758,6.16463577,13.71604249\H,0,22.34
 326357,3.07149465,8.70893869\H,0,20.98111524,2.25491936,7.98036241\H,0
 ,20.76392391,3.17623073,9.4490625\H,0,21.38195438,-1.50532553,7.968479
 88\H,0,23.15359438,0.04674312,7.08725734\H,0,22.0320054,-0.84361543,6.
 0860748\H,0,25.51888147,-5.28533861,9.43430332\H,0,23.79267955,-5.3719
 056,9.17778865\H,0,24.68585567,-3.96802005,8.64448909\H,0,25.42781304,
 -6.47488176,11.70401451\H,0,25.96238639,-5.67824507,13.28966936\H,0,27
 .52129043,-4.42714427,12.00521089\H,0,27.11631142,-5.54517682,10.58369
 93\H,0,19.23266212,-3.94014532,13.7771365\H,0,24.26903526,-7.75078259,
 19.22406407\H,0,29.61495358,-6.27272951,13.47828578\H,0,21.73894581,0.
 84220563,6.43989694\H,0,20.40836972,-0.09071643,7.80113022\H,0,20.3014
 7725,4.47513151,14.96104087\H,0,21.97423612,5.74876246,15.38426499\\Ve
 rsion=ES64L-G16RevA.03\State=6-A\HF=-3881.2390288\S2=8.764455\S2-1=0.\
 S2A=8.750061\RMSD=2.971e-09\Dipole=-3.7747734,2.1017134,0.3420073\Quad
 rupole=-3.8244505,-7.1690321,10.9934826,3.9085386,-6.774422,-12.248911
 6\PG=C01 [X(C41H50Fe1N6O4S1)]\\@


 ONE BIG VICE IN A MAN IS APT TO KEEP OUT MANY SMALLER ONES.

                           -- BRET HARTE
 Job cpu time:       2 days 23 hours 31 minutes 48.3 seconds.
 Elapsed time:       0 days 17 hours 55 minutes 14.5 seconds.
 File lengths (MBytes):  RWF=   3538 Int=      0 D2E=      0 Chk=    298 Scr=      1
 Normal termination of Gaussian 16 at Sat Oct  1 04:55:41 2022.
