 Initial command:
 /afs/math/software/gaussian/g16.A03/g16/l1.exe "/scratch/kleich_gaussian.gL5UNVU/Gau-12011.inp" -scrdir="/scratch/kleich_gaussian.gL5UNVU/"
 Entering Link 1 = /afs/math/software/gaussian/g16.A03/g16/l1.exe PID=     30982.
  
 Copyright (c) 1988,1990,1992,1993,1995,1998,2003,2009,2016,
            Gaussian, Inc.  All Rights Reserved.
  
 This is part of the Gaussian(R) 16 program.  It is based on
 the Gaussian(R) 09 system (copyright 2009, Gaussian, Inc.),
 the Gaussian(R) 03 system (copyright 2003, Gaussian, Inc.),
 the Gaussian(R) 98 system (copyright 1998, Gaussian, Inc.),
 the Gaussian(R) 94 system (copyright 1995, Gaussian, Inc.),
 the Gaussian 92(TM) system (copyright 1992, Gaussian, Inc.),
 the Gaussian 90(TM) system (copyright 1990, Gaussian, Inc.),
 the Gaussian 88(TM) system (copyright 1988, Gaussian, Inc.),
 the Gaussian 86(TM) system (copyright 1986, Carnegie Mellon
 University), and the Gaussian 82(TM) system (copyright 1983,
 Carnegie Mellon University). Gaussian is a federally registered
 trademark of Gaussian, Inc.
  
 This software contains proprietary and confidential information,
 including trade secrets, belonging to Gaussian, Inc.
  
 This software is provided under written license and may be
 used, copied, transmitted, or stored only in accord with that
 written license.
  
 The following legend is applicable only to US Government
 contracts under FAR:
  
                    RESTRICTED RIGHTS LEGEND
  
 Use, reproduction and disclosure by the US Government is
 subject to restrictions as set forth in subparagraphs (a)
 and (c) of the Commercial Computer Software - Restricted
 Rights clause in FAR 52.227-19.
  
 Gaussian, Inc.
 340 Quinnipiac St., Bldg. 40, Wallingford CT 06492
  
  
 ---------------------------------------------------------------
 Warning -- This program may not be used in any manner that
 competes with the business of Gaussian, Inc. or will provide
 assistance to any competitor of Gaussian, Inc.  The licensee
 of this program is prohibited from giving any competitor of
 Gaussian, Inc. access to this program.  By using this program,
 the user acknowledges that Gaussian, Inc. is engaged in the
 business of creating and licensing software in the field of
 computational chemistry and represents and warrants to the
 licensee that it is not a competitor of Gaussian, Inc. and that
 it will not use this program in any manner prohibited above.
 ---------------------------------------------------------------
  

 Cite this work as:
 Gaussian 16, Revision A.03,
 M. J. Frisch, G. W. Trucks, H. B. Schlegel, G. E. Scuseria, 
 M. A. Robb, J. R. Cheeseman, G. Scalmani, V. Barone, 
 G. A. Petersson, H. Nakatsuji, X. Li, M. Caricato, A. V. Marenich, 
 J. Bloino, B. G. Janesko, R. Gomperts, B. Mennucci, H. P. Hratchian, 
 J. V. Ortiz, A. F. Izmaylov, J. L. Sonnenberg, D. Williams-Young, 
 F. Ding, F. Lipparini, F. Egidi, J. Goings, B. Peng, A. Petrone, 
 T. Henderson, D. Ranasinghe, V. G. Zakrzewski, J. Gao, N. Rega, 
 G. Zheng, W. Liang, M. Hada, M. Ehara, K. Toyota, R. Fukuda, 
 J. Hasegawa, M. Ishida, T. Nakajima, Y. Honda, O. Kitao, H. Nakai, 
 T. Vreven, K. Throssell, J. A. Montgomery, Jr., J. E. Peralta, 
 F. Ogliaro, M. J. Bearpark, J. J. Heyd, E. N. Brothers, K. N. Kudin, 
 V. N. Staroverov, T. A. Keith, R. Kobayashi, J. Normand, 
 K. Raghavachari, A. P. Rendell, J. C. Burant, S. S. Iyengar, 
 J. Tomasi, M. Cossi, J. M. Millam, M. Klene, C. Adamo, R. Cammi, 
 J. W. Ochterski, R. L. Martin, K. Morokuma, O. Farkas, 
 J. B. Foresman, and D. J. Fox, Gaussian, Inc., Wallingford CT, 2016.
 
 ******************************************
 Gaussian 16:  ES64L-G16RevA.03 25-Dec-2016
                14-Sep-2022 
 ******************************************
 %nprocs=12
 Will use up to   12 processors via shared memory.
 %mem=16GB
 %chk=1f1f_III_D.chk
 ----------------------------------------------------------------------
 # PBE1PBE/def2TZVP empiricaldispersion=GD3BJ int=(grid=ultrafine) geom
 =check guess=read scrf=(smd,solvent=Chloroform)
 ----------------------------------------------------------------------
 1/29=2,38=1,172=1/1;
 2/12=2,40=1/2;
 3/5=44,7=101,11=2,14=-4,25=1,30=1,70=32201,72=7,74=-13,75=-5,116=-2,124=41/1,2,3;
 4/5=1/1;
 5/5=2,38=6,53=7/2;
 6/7=2,8=2,9=2,10=2,28=1/1;
 99/5=1,9=1/99;
 ---------------
 1f1f_III_D_solv
 ---------------
 Structure from the checkpoint file:  "1f1f_III_D.chk"
 Charge =  1 Multiplicity = 2
 Z-Matrix found in chk file.
 C,0,17.746,-1.573,14.073
 C,0,19.193,-1.82,13.766
 N,0,19.739,-3.084,13.674
 C,0,20.216,-0.957,13.561
 C,0,21.032,-2.989,13.429
 N,0,21.348,-1.709,13.356
 C,0,26.954,-1.513,11.283
 C,0,26.872,-0.44,12.354
 S,0,25.223,0.143,12.791
 C,0,25.647,1.516,13.893
 Fe,0,23.155,-0.817,13.27
 C,0,24.82,-3.613,14.279
 C,0,22.887,0.274,16.485
 C,0,21.839,2.193,12.107
 C,0,22.984,-2.09,10.08
 N,0,23.692,-1.546,15.023
 C,0,24.377,-2.734,15.277
 C,0,24.705,-2.89,16.725
 C,0,24.279,-1.703,17.32
 C,0,23.578,-0.926,16.264
 C,0,24.488,-1.268,18.793
 C,0,25.234,-4.188,17.406
 C,0,24.275,-5.336,17.098
 C,0,24.692,-6.674,17.694
 O,0,25.782,-7.178,17.357
 O,0,23.916,-7.237,18.494
 N,0,22.421,0.836,14.114
 C,0,22.338,1.097,15.49
 C,0,21.784,2.43,15.73
 C,0,21.573,3.003,14.497
 C,0,21.95,2.006,13.491
 C,0,21.418,3.053,17.081
 C,0,21.102,4.304,14.272
 C,0,21.977,5.385,14.378
 N,0,22.588,-0.09,11.473
 C,0,22.143,1.209,11.155
 C,0,21.74,1.292,9.736
 C,0,21.822,-0.001,9.23
 C,0,22.445,-0.814,10.283
 C,0,21.434,2.543,8.906
 C,0,21.411,-0.436,7.944
 C,0,22.123,-0.078,6.828
 N,0,23.773,-2.479,12.38
 C,0,23.641,-2.843,11.034
 C,0,24.376,-4.055,10.759
 C,0,24.914,-4.456,11.946
 C,0,24.528,-3.497,12.936
 C,0,24.611,-4.72,9.402
 C,0,25.836,-5.636,12.228
 C,0,27.212,-5.383,11.637
 C,0,28.251,-6.376,12.122
 O,0,28.671,-6.286,13.304
 O,0,28.641,-7.254,11.32
 H,0,17.66685698,-0.88743069,14.89069866
 H,0,17.26446035,-1.15843219,13.21209751
 H,0,17.27427527,-2.49690725,14.33524258
 H,0,20.15458612,0.11123417,13.55897442
 H,0,21.70887138,-3.80908731,13.30982811
 H,0,27.95092075,-1.89935119,11.24078886
 H,0,26.27424493,-2.30497904,11.51880126
 H,0,26.69462441,-1.09087413,10.33461503
 H,0,27.36952853,0.41091235,11.93769059
 H,0,27.25170312,-0.90019582,13.24222596
 H,0,25.07237296,2.34654736,14.24640464
 H,0,25.52401124,2.05297113,12.97570192
 H,0,24.94483245,0.99831047,14.51256298
 H,0,25.43148164,-4.43702489,14.58227081
 H,0,22.76806888,0.58942604,17.50051061
 H,0,21.50148805,3.14524249,11.75455154
 H,0,22.87834155,-2.51764769,9.1048827
 H,0,23.90825383,-0.6406395,19.43737037
 H,0,24.63248393,-0.32667414,18.3052193
 H,0,23.61949653,-1.88224725,18.90833448
 H,0,25.1929533,-4.02362619,18.46250197
 H,0,26.16581048,-4.42719282,16.93758136
 H,0,24.30982526,-5.46705355,16.03662722
 H,0,23.35228676,-5.08001763,17.5754655
 H,0,21.74558828,4.0713457,17.10462085
 H,0,20.35704278,3.01643157,17.21491238
 H,0,21.89575657,2.50632246,17.86699766
 H,0,20.68918691,4.32564604,13.28507711
 H,0,22.96546726,5.07088439,14.11500977
 H,0,21.66254758,6.16463577,13.71604249
 H,0,22.34326357,3.07149465,8.70893869
 H,0,20.98111524,2.25491936,7.98036241
 H,0,20.76392391,3.17623073,9.4490625
 H,0,21.38195438,-1.50532553,7.96847988
 H,0,23.15359438,0.04674312,7.08725734
 H,0,22.0320054,-0.84361543,6.0860748
 H,0,25.51888147,-5.28533861,9.43430332
 H,0,23.79267955,-5.3719056,9.17778865
 H,0,24.68585567,-3.96802005,8.64448909
 H,0,25.42781304,-6.47488176,11.70401451
 H,0,25.96238639,-5.67824507,13.28966936
 H,0,27.52129043,-4.42714427,12.00521089
 H,0,27.11631142,-5.54517682,10.5836993
 H,0,19.23266212,-3.94014532,13.7771365
 H,0,24.26903526,-7.75078259,19.22406407
 H,0,29.61495358,-6.27272951,13.47828578
 H,0,21.73894581,0.84220563,6.43989694
 H,0,20.40836972,-0.09071643,7.80113022
 H,0,20.30147725,4.47513151,14.96104087
 H,0,21.97423612,5.74876246,15.38426499
 Recover connectivity data from disk.
 Stoichiometry    C41H50FeN6O4S(1+,2)
 Framework group  C1[X(C41H50FeN6O4S)]
 Deg. of freedom   303
 Full point group                 C1      NOp   1
 Largest Abelian subgroup         C1      NOp   1
 Largest concise Abelian subgroup C1      NOp   1
                         Standard orientation:                         
 ---------------------------------------------------------------------
 Center     Atomic      Atomic             Coordinates (Angstroms)
 Number     Number       Type             X           Y           Z
 ---------------------------------------------------------------------
      1          6           0        2.701855   -1.695484    4.863536
      2          6           0        1.841605   -1.105113    3.786270
      3          7           0        0.532127   -0.721753    3.992615
      4          6           0        2.098814   -0.862301    2.479286
      5          6           0        0.020964   -0.272272    2.862315
      6          7           0        0.950442   -0.346928    1.927392
      7          6           0       -1.218963    2.618193   -2.791159
      8          6           0       -0.521306    1.394438   -3.357544
      9         16           0        0.691682    0.589624   -2.294062
     10          6           0        1.380636   -0.622806   -3.449338
     11         26           0        0.813578   -0.087145   -0.068126
     12          6           0       -2.584210   -0.337665   -0.082105
     13          6           0        1.136760   -3.430197   -0.631943
     14          6           0        4.250752    0.340541   -0.452109
     15          6           0        0.551758    3.183354    0.961997
     16          7           0       -0.458964   -1.582635   -0.260392
     17          6           0       -1.852135   -1.523186   -0.235405
     18          6           0       -2.472282   -2.848731   -0.530313
     19          6           0       -1.400338   -3.687912   -0.832274
     20          6           0       -0.162566   -2.906124   -0.573445
     21          6           0       -1.472236   -5.151343   -1.338077
     22          6           0       -3.975651   -3.214350   -0.344269
     23          6           0       -4.387828   -2.902604    1.092872
     24          6           0       -5.849598   -3.198924    1.400721
     25          8           0       -6.739810   -2.601525    0.763286
     26          8           0       -6.113064   -4.023929    2.300219
     27          7           0        2.373185   -1.295387   -0.370248
     28          6           0        2.323377   -2.688321   -0.530376
     29          6           0        3.661276   -3.227764   -0.776210
     30          6           0        4.523482   -2.156172   -0.814045
     31          6           0        3.727448   -0.955904   -0.542272
     32          6           0        4.061290   -4.702738   -0.884498
     33          6           0        5.897786   -2.224098   -1.081887
     34          6           0        6.341315   -2.343687   -2.398855
     35          7           0        2.109330    1.446176    0.153637
     36          6           0        3.489903    1.473508   -0.128891
     37          6           0        4.079909    2.769200    0.265993
     38          6           0        3.071063    3.478317    0.909414
     39          6           0        1.842803    2.691446    0.735866
     40          6           0        5.466110    3.326042   -0.074466
     41          6           0        3.201769    4.724640    1.573897
     42          6           0        3.396796    5.877769    0.857779
     43          7           0       -0.685273    1.146923    0.340273
     44          6           0       -0.621009    2.489242    0.734844
     45          6           0       -1.940199    3.075384    0.765978
     46          6           0       -2.811471    2.078727    0.439215
     47          6           0       -2.039134    0.898400    0.196110
     48          6           0       -2.308575    4.539859    1.007868
     49          6           0       -4.322616    2.151177    0.257007
     50          6           0       -4.665191    2.926687   -1.003109
     51          6           0       -6.124000    2.792947   -1.396537
     52          8           0       -6.524433    1.703436   -1.880522
     53          8           0       -6.872871    3.778529   -1.212121
     54          1           0        3.130949   -2.611725    4.515282
     55          1           0        3.482903   -1.008037    5.113095
     56          1           0        2.105483   -1.887909    5.730838
     57          1           0        3.023648   -1.038747    1.970907
     58          1           0       -0.976376    0.090723    2.726492
     59          1           0       -2.030592    2.894310   -3.431407
     60          1           0       -1.595113    2.394359   -1.814783
     61          1           0       -0.522863    3.428361   -2.728122
     62          1           0        0.035777    1.752585   -4.197955
     63          1           0       -1.295815    0.669775   -3.498607
     64          1           0        2.282956   -1.197221   -3.421687
     65          1           0        2.097706    0.162985   -3.564411
     66          1           0        1.158803   -1.266623   -2.623995
     67          1           0       -3.647242   -0.396100   -0.189107
     68          1           0        1.231547   -4.487572   -0.765632
     69          1           0        5.295289    0.474591   -0.641515
     70          1           0        0.466164    4.179782    1.342398
     71          1           0       -0.802820   -5.977574   -1.219235
     72          1           0       -0.647107   -4.799696   -1.921521
     73          1           0       -1.578317   -5.319010   -0.286633
     74          1           0       -4.055360   -4.274230   -0.467556
     75          1           0       -4.535743   -2.558459   -0.977518
     76          1           0       -4.276039   -1.844307    1.204282
     77          1           0       -3.820268   -3.568331    1.708975
     78          1           0        4.744334   -4.828211   -1.698504
     79          1           0        4.530444   -5.012811    0.025804
     80          1           0        3.188460   -5.297305   -1.056420
     81          1           0        6.344141   -1.340463   -0.675861
     82          1           0        5.644020   -1.865795   -3.054827
     83          1           0        7.299572   -1.877673   -2.496191
     84          1           0        5.498482    3.593739   -1.109932
     85          1           0        5.659564    4.191711    0.523943
     86          1           0        6.208346    2.581552    0.124830
     87          1           0        2.316148    4.863603    2.158075
     88          1           0        2.928107    5.786536   -0.099773
     89          1           0        2.968656    6.703151    1.387250
     90          1           0       -3.242245    4.756062    0.532037
     91          1           0       -2.394823    4.716915    2.059587
     92          1           0       -1.546389    5.171213    0.601218
     93          1           0       -4.702674    2.720722    1.079244
     94          1           0       -4.659971    1.148003    0.099739
     95          1           0       -4.102826    2.472886   -1.792229
     96          1           0       -4.516074    3.959185   -0.765174
     97          1           0        0.045535   -0.776223    4.864545
     98          1           0       -6.883497   -4.591118    2.220662
     99          1           0       -7.023992    1.697129   -2.700279
    100          1           0        4.445797    6.043359    0.727103
    101          1           0        4.023537    4.633865    2.253130
    102          1           0        6.285724   -3.060772   -0.539319
    103          1           0        6.420603   -3.379335   -2.655850
 ---------------------------------------------------------------------
 Rotational constants (GHZ):           0.0654751           0.0436070           0.0340354
 Standard basis: def2TZVP (5D, 7F)
 There are  2230 symmetry adapted cartesian basis functions of A   symmetry.
 There are  1963 symmetry adapted basis functions of A   symmetry.
  1963 basis functions,  3172 primitive gaussians,  2230 cartesian basis functions
   206 alpha electrons      205 beta electrons
       nuclear repulsion energy      9024.6235923229 Hartrees.
 NAtoms=  103 NActive=  103 NUniq=  103 SFac= 1.00D+00 NAtFMM=   60 NAOKFM=T Big=T
 Integral buffers will be    131072 words long.
 Raffenetti 2 integral format.
 Two-electron integral symmetry is turned on.
 Nuclear repulsion after empirical dispersion term =     9024.4711723104 Hartrees.
 ------------------------------------------------------------------------------
 Polarizable Continuum Model (PCM)
 =================================
 Model                : PCM.
 Atomic radii         : SMD-Coulomb.
 Polarization charges : Total charges.
 Charge compensation  : None.
 Solution method      : On-the-fly selection.
 Cavity type          : VdW (van der Waals Surface) (Alpha=1.000).
 Cavity algorithm     : GePol (No added spheres)
                        Default sphere list used, NSphG=  103.
                        Lebedev-Laikov grids with approx.  5.0 points / Ang**2.
                        Smoothing algorithm: York/Karplus (Gamma=1.0000).
                        Polarization charges: spherical gaussians, with
                                              point-specific exponents (IZeta= 3).
                        Self-potential: point-specific (ISelfS= 7).
                        Self-field    : sphere-specific E.n sum rule (ISelfD= 2).
 Solvent              : Chloroform, Eps=   4.711300 Eps(inf)=   2.090627
 ------------------------------------------------------------------------------
 ------------------------------------------------------------------------------
 Atomic radii for non-electrostatic terms: SMD-CDS.
 ------------------------------------------------------------------------------
 Nuclear repulsion after PCM non-electrostatic terms =     9024.4522821896 Hartrees.
 One-electron integrals computed using PRISM.
   1 Symmetry operations used in ECPInt.
 ECPInt:  NShTT=  311655 NPrTT=  958403 LenC2=  228367 LenP2D=  454263.
 LDataN:  DoStor=T MaxTD1= 6 Len=  172
 NBasis=  1963 RedAO= T EigKep=  3.60D-06  NBF=  1963
 NBsUse=  1963 1.00D-06 EigRej= -1.00D+00 NBFU=  1963
 Initial guess from the checkpoint file:  "1f1f_III_D.chk"
 B after Tr=    -0.000000   -0.000000   -0.000000
         Rot=    1.000000    0.000000    0.000000   -0.000000 Ang=   0.00 deg.
 Initial guess <Sx>= 0.0000 <Sy>= 0.0000 <Sz>= 0.5000 <S**2>= 0.8509 S= 0.5492
 Requested convergence on RMS density matrix=1.00D-08 within 128 cycles.
 Requested convergence on MAX density matrix=1.00D-06.
 Requested convergence on             energy=1.00D-06.
 No special actions if energy rises.
 Inv3:  Mode=1 IEnd=   148558107.
 Iteration    1 A*A^-1 deviation from unit magnitude is 4.22D-15 for   1755.
 Iteration    1 A*A^-1 deviation from orthogonality  is 2.44D-15 for   5696   1266.
 Iteration    1 A^-1*A deviation from unit magnitude is 4.00D-15 for   1755.
 Iteration    1 A^-1*A deviation from orthogonality  is 4.54D-14 for   5650   5640.
 Restarting incremental Fock formation.
 Restarting incremental Fock formation.
 Error on total polarization charges =  0.08548
 SCF Done:  E(UPBE1PBE) =  -3881.36556520     A.U. after   42 cycles
            NFock= 42  Conv=0.18D-08     -V/T= 2.0031
 <Sx>= 0.0000 <Sy>= 0.0000 <Sz>= 0.5000 <S**2>= 0.8448 S= 0.5463
 <L.S>= 0.000000000000E+00
 SMD-CDS (non-electrostatic) energy       (kcal/mol) =     -11.85
 (included in total energy above)
 Annihilation of the first spin contaminant:
 S**2 before annihilation     0.8448,   after     0.7519
 Hyperfine terms turned off by default for NAtoms > 100.

 **********************************************************************

            Population analysis using the SCF density.

 **********************************************************************

 Orbital symmetries:
 Alpha Orbitals:
       Occupied  (A) (A) (A) (A) (A) (A) (A) (A) (A) (A) (A) (A)
                 (A) (A) (A) (A) (A) (A) (A) (A) (A) (A) (A) (A)
                 (A) (A) (A) (A) (A) (A) (A) (A) (A) (A) (A) (A)
                 (A) (A) (A) (A) (A) (A) (A) (A) (A) (A) (A) (A)
                 (A) (A) (A) (A) (A) (A) (A) (A) (A) (A) (A) (A)
                 (A) (A) (A) (A) (A) (A) (A) (A) (A) (A) (A) (A)
                 (A) (A) (A) (A) (A) (A) (A) (A) (A) (A) (A) (A)
                 (A) (A) (A) (A) (A) (A) (A) (A) (A) (A) (A) (A)
                 (A) (A) (A) (A) (A) (A) (A) (A) (A) (A) (A) (A)
                 (A) (A) (A) (A) (A) (A) (A) (A) (A) (A) (A) (A)
                 (A) (A) (A) (A) (A) (A) (A) (A) (A) (A) (A) (A)
                 (A) (A) (A) (A) (A) (A) (A) (A) (A) (A) (A) (A)
                 (A) (A) (A) (A) (A) (A) (A) (A) (A) (A) (A) (A)
                 (A) (A) (A) (A) (A) (A) (A) (A) (A) (A) (A) (A)
                 (A) (A) (A) (A) (A) (A) (A) (A) (A) (A) (A) (A)
                 (A) (A) (A) (A) (A) (A) (A) (A) (A) (A) (A) (A)
                 (A) (A) (A) (A) (A) (A) (A) (A) (A) (A) (A) (A)
                 (A) (A)
       Virtual   (A) (A) (A) (A) (A) (A) (A) (A) (A) (A) (A) (A)
                 (A) (A) (A) (A) (A) (A) (A) (A) (A) (A) (A) (A)
                 (A) (A) (A) (A) (A) (A) (A) (A) (A) (A) (A) (A)
                 (A) (A) (A) (A) (A) (A) (A) (A) (A) (A) (A) (A)
                 (A) (A) (A) (A) (A) (A) (A) (A) (A) (A) (A) (A)
                 (A) (A) (A) (A) (A) (A) (A) (A) (A) (A) (A) (A)
                 (A) (A) (A) (A) (A) (A) (A) (A) (A) (A) (A) (A)
                 (A) (A) (A) (A) (A) (A) (A) (A) (A) (A) (A) (A)
                 (A) (A) (A) (A) (A) (A) (A) (A) (A) (A) (A) (A)
                 (A) (A) (A) (A) (A) (A) (A) (A) (A) (A) (A) (A)
                 (A) (A) (A) (A) (A) (A) (A) (A) (A) (A) (A) (A)
                 (A) (A) (A) (A) (A) (A) (A) (A) (A) (A) (A) (A)
                 (A) (A) (A) (A) (A) (A) (A) (A) (A) (A) (A) (A)
                 (A) (A) (A) (A) (A) (A) (A) (A) (A) (A) (A) (A)
                 (A) (A) (A) (A) (A) (A) (A) (A) (A) (A) (A) (A)
                 (A) (A) (A) (A) (A) (A) (A) (A) (A) (A) (A) (A)
                 (A) (A) (A) (A) (A) (A) (A) (A) (A) (A) (A) (A)
                 (A) (A) (A) (A) (A) (A) (A) (A) (A) (A) (A) (A)
                 (A) (A) (A) (A) (A) (A) (A) (A) (A) (A) (A) (A)
                 (A) (A) (A) (A) (A) (A) (A) (A) (A) (A) (A) (A)
                 (A) (A) (A) (A) (A) (A) (A) (A) (A) (A) (A) (A)
                 (A) (A) (A) (A) (A) (A) (A) (A) (A) (A) (A) (A)
                 (A) (A) (A) (A) (A) (A) (A) (A) (A) (A) (A) (A)
                 (A) (A) (A) (A) (A) (A) (A) (A) (A) (A) (A) (A)
                 (A) (A) (A) (A) (A) (A) (A) (A) (A) (A) (A) (A)
                 (A) (A) (A) (A) (A) (A) (A) (A) (A) (A) (A) (A)
                 (A) (A) (A) (A) (A) (A) (A) (A) (A) (A) (A) (A)
                 (A) (A) (A) (A) (A) (A) (A) (A) (A) (A) (A) (A)
                 (A) (A) (A) (A) (A) (A) (A) (A) (A) (A) (A) (A)
                 (A) (A) (A) (A) (A) (A) (A) (A) (A) (A) (A) (A)
                 (A) (A) (A) (A) (A) (A) (A) (A) (A) (A) (A) (A)
                 (A) (A) (A) (A) (A) (A) (A) (A) (A) (A) (A) (A)
                 (A) (A) (A) (A) (A) (A) (A) (A) (A) (A) (A) (A)
                 (A) (A) (A) (A) (A) (A) (A) (A) (A) (A) (A) (A)
                 (A) (A) (A) (A) (A) (A) (A) (A) (A) (A) (A) (A)
                 (A) (A) (A) (A) (A) (A) (A) (A) (A) (A) (A) (A)
                 (A) (A) (A) (A) (A) (A) (A) (A) (A) (A) (A) (A)
                 (A) (A) (A) (A) (A) (A) (A) (A) (A) (A) (A) (A)
                 (A) (A) (A) (A) (A) (A) (A) (A) (A) (A) (A) (A)
                 (A) (A) (A) (A) (A) (A) (A) (A) (A) (A) (A) (A)
                 (A) (A) (A) (A) (A) (A) (A) (A) (A) (A) (A) (A)
                 (A) (A) (A) (A) (A) (A) (A) (A) (A) (A) (A) (A)
                 (A) (A) (A) (A) (A) (A) (A) (A) (A) (A) (A) (A)
                 (A) (A) (A) (A) (A) (A) (A) (A) (A) (A) (A) (A)
                 (A) (A) (A) (A) (A) (A) (A) (A) (A) (A) (A) (A)
                 (A) (A) (A) (A) (A) (A) (A) (A) (A) (A) (A) (A)
                 (A) (A) (A) (A) (A) (A) (A) (A) (A) (A) (A) (A)
                 (A) (A) (A) (A) (A) (A) (A) (A) (A) (A) (A) (A)
                 (A) (A) (A) (A) (A) (A) (A) (A) (A) (A) (A) (A)
                 (A) (A) (A) (A) (A) (A) (A) (A) (A) (A) (A) (A)
                 (A) (A) (A) (A) (A) (A) (A) (A) (A) (A) (A) (A)
                 (A) (A) (A) (A) (A) (A) (A) (A) (A) (A) (A) (A)
                 (A) (A) (A) (A) (A) (A) (A) (A) (A) (A) (A) (A)
                 (A) (A) (A) (A) (A) (A) (A) (A) (A) (A) (A) (A)
                 (A) (A) (A) (A) (A) (A) (A) (A) (A) (A) (A) (A)
                 (A) (A) (A) (A) (A) (A) (A) (A) (A) (A) (A) (A)
                 (A) (A) (A) (A) (A) (A) (A) (A) (A) (A) (A) (A)
                 (A) (A) (A) (A) (A) (A) (A) (A) (A) (A) (A) (A)
                 (A) (A) (A) (A) (A) (A) (A) (A) (A) (A) (A) (A)
                 (A) (A) (A) (A) (A) (A) (A) (A) (A) (A) (A) (A)
                 (A) (A) (A) (A) (A) (A) (A) (A) (A) (A) (A) (A)
                 (A) (A) (A) (A) (A) (A) (A) (A) (A) (A) (A) (A)
                 (A) (A) (A) (A) (A) (A) (A) (A) (A) (A) (A) (A)
                 (A) (A) (A) (A) (A) (A) (A) (A) (A) (A) (A) (A)
                 (A) (A) (A) (A) (A) (A) (A) (A) (A) (A) (A) (A)
                 (A) (A) (A) (A) (A) (A) (A) (A) (A) (A) (A) (A)
                 (A) (A) (A) (A) (A) (A) (A) (A) (A) (A) (A) (A)
                 (A) (A) (A) (A) (A) (A) (A) (A) (A) (A) (A) (A)
                 (A) (A) (A) (A) (A) (A) (A) (A) (A) (A) (A) (A)
                 (A) (A) (A) (A) (A) (A) (A) (A) (A) (A) (A) (A)
                 (A) (A) (A) (A) (A) (A) (A) (A) (A) (A) (A) (A)
                 (A) (A) (A) (A) (A) (A) (A) (A) (A) (A) (A) (A)
                 (A) (A) (A) (A) (A) (A) (A) (A) (A) (A) (A) (A)
                 (A) (A) (A) (A) (A) (A) (A) (A) (A) (A) (A) (A)
                 (A) (A) (A) (A) (A) (A) (A) (A) (A) (A) (A) (A)
                 (A) (A) (A) (A) (A) (A) (A) (A) (A) (A) (A) (A)
                 (A) (A) (A) (A) (A) (A) (A) (A) (A) (A) (A) (A)
                 (A) (A) (A) (A) (A) (A) (A) (A) (A) (A) (A) (A)
                 (A) (A) (A) (A) (A) (A) (A) (A) (A) (A) (A) (A)
                 (A) (A) (A) (A) (A) (A) (A) (A) (A) (A) (A) (A)
                 (A) (A) (A) (A) (A) (A) (A) (A) (A) (A) (A) (A)
                 (A) (A) (A) (A) (A) (A) (A) (A) (A) (A) (A) (A)
                 (A) (A) (A) (A) (A) (A) (A) (A) (A) (A) (A) (A)
                 (A) (A) (A) (A) (A) (A) (A) (A) (A) (A) (A) (A)
                 (A) (A) (A) (A) (A) (A) (A) (A) (A) (A) (A) (A)
                 (A) (A) (A) (A) (A) (A) (A) (A) (A) (A) (A) (A)
                 (A) (A) (A) (A) (A) (A) (A) (A) (A) (A) (A) (A)
                 (A) (A) (A) (A) (A) (A) (A) (A) (A) (A) (A) (A)
                 (A) (A) (A) (A) (A) (A) (A) (A) (A) (A) (A) (A)
                 (A) (A) (A) (A) (A) (A) (A) (A) (A) (A) (A) (A)
                 (A) (A) (A) (A) (A) (A) (A) (A) (A) (A) (A) (A)
                 (A) (A) (A) (A) (A) (A) (A) (A) (A) (A) (A) (A)
                 (A) (A) (A) (A) (A) (A) (A) (A) (A) (A) (A) (A)
                 (A) (A) (A) (A) (A) (A) (A) (A) (A) (A) (A) (A)
                 (A) (A) (A) (A) (A) (A) (A) (A) (A) (A) (A) (A)
                 (A) (A) (A) (A) (A) (A) (A) (A) (A) (A) (A) (A)
                 (A) (A) (A) (A) (A) (A) (A) (A) (A) (A) (A) (A)
                 (A) (A) (A) (A) (A) (A) (A) (A) (A) (A) (A) (A)
                 (A) (A) (A) (A) (A) (A) (A) (A) (A) (A) (A) (A)
                 (A) (A) (A) (A) (A) (A) (A) (A) (A) (A) (A) (A)
                 (A) (A) (A) (A) (A) (A) (A) (A) (A) (A) (A) (A)
                 (A) (A) (A) (A) (A) (A) (A) (A) (A) (A) (A) (A)
                 (A) (A) (A) (A) (A) (A) (A) (A) (A) (A) (A) (A)
                 (A) (A) (A) (A) (A) (A) (A) (A) (A) (A) (A) (A)
                 (A) (A) (A) (A) (A) (A) (A) (A) (A) (A) (A) (A)
                 (A) (A) (A) (A) (A) (A) (A) (A) (A) (A) (A) (A)
                 (A) (A) (A) (A) (A) (A) (A) (A) (A) (A) (A) (A)
                 (A) (A) (A) (A) (A) (A) (A) (A) (A) (A) (A) (A)
                 (A) (A) (A) (A) (A) (A) (A) (A) (A) (A) (A) (A)
                 (A) (A) (A) (A) (A) (A) (A) (A) (A) (A) (A) (A)
                 (A) (A) (A) (A) (A) (A) (A) (A) (A) (A) (A) (A)
                 (A) (A) (A) (A) (A) (A) (A) (A) (A) (A) (A) (A)
                 (A) (A) (A) (A) (A) (A) (A) (A) (A) (A) (A) (A)
                 (A) (A) (A) (A) (A) (A) (A) (A) (A) (A) (A) (A)
                 (A) (A) (A) (A) (A) (A) (A) (A) (A) (A) (A) (A)
                 (A) (A) (A) (A) (A) (A) (A) (A) (A) (A) (A) (A)
                 (A) (A) (A) (A) (A) (A) (A) (A) (A) (A) (A) (A)
                 (A) (A) (A) (A) (A) (A) (A) (A) (A) (A) (A) (A)
                 (A) (A) (A) (A) (A) (A) (A) (A) (A) (A) (A) (A)
                 (A) (A) (A) (A) (A) (A) (A) (A) (A) (A) (A) (A)
                 (A) (A) (A) (A) (A) (A) (A) (A) (A) (A) (A) (A)
                 (A) (A) (A) (A) (A) (A) (A) (A) (A) (A) (A) (A)
                 (A) (A) (A) (A) (A) (A) (A) (A) (A) (A) (A) (A)
                 (A) (A) (A) (A) (A) (A) (A) (A) (A) (A) (A) (A)
                 (A) (A) (A) (A) (A) (A) (A) (A) (A) (A) (A) (A)
                 (A) (A) (A) (A) (A) (A) (A) (A) (A) (A) (A) (A)
                 (A) (A) (A) (A) (A) (A) (A) (A) (A) (A) (A) (A)
                 (A) (A) (A) (A) (A) (A) (A) (A) (A) (A) (A) (A)
                 (A) (A) (A) (A) (A) (A) (A) (A) (A) (A) (A) (A)
                 (A) (A) (A) (A) (A) (A) (A) (A) (A) (A) (A) (A)
                 (A) (A) (A) (A) (A) (A) (A) (A) (A) (A) (A) (A)
                 (A) (A) (A) (A) (A) (A) (A) (A) (A) (A) (A) (A)
                 (A) (A) (A) (A) (A) (A) (A) (A) (A) (A) (A) (A)
                 (A) (A) (A) (A) (A) (A) (A) (A) (A) (A) (A) (A)
                 (A) (A) (A) (A) (A) (A) (A) (A) (A) (A) (A) (A)
                 (A) (A) (A) (A) (A) (A) (A) (A) (A) (A) (A) (A)
                 (A) (A) (A) (A) (A) (A) (A) (A) (A) (A) (A) (A)
                 (A) (A) (A) (A) (A) (A) (A) (A) (A) (A) (A) (A)
                 (A) (A) (A) (A) (A) (A) (A) (A) (A) (A) (A) (A)
                 (A) (A) (A) (A) (A) (A) (A) (A) (A) (A) (A) (A)
                 (A) (A) (A) (A) (A) (A) (A) (A) (A) (A) (A) (A)
                 (A) (A) (A) (A) (A) (A) (A) (A) (A) (A) (A) (A)
                 (A) (A) (A) (A) (A) (A) (A) (A) (A) (A) (A) (A)
                 (A) (A) (A) (A) (A) (A) (A) (A) (A) (A) (A) (A)
                 (A) (A) (A) (A) (A) (A) (A) (A) (A) (A) (A) (A)
                 (A) (A) (A) (A) (A) (A) (A) (A) (A) (A) (A) (A)
                 (A) (A) (A) (A) (A)
 Beta  Orbitals:
       Occupied  (A) (A) (A) (A) (A) (A) (A) (A) (A) (A) (A) (A)
                 (A) (A) (A) (A) (A) (A) (A) (A) (A) (A) (A) (A)
                 (A) (A) (A) (A) (A) (A) (A) (A) (A) (A) (A) (A)
                 (A) (A) (A) (A) (A) (A) (A) (A) (A) (A) (A) (A)
                 (A) (A) (A) (A) (A) (A) (A) (A) (A) (A) (A) (A)
                 (A) (A) (A) (A) (A) (A) (A) (A) (A) (A) (A) (A)
                 (A) (A) (A) (A) (A) (A) (A) (A) (A) (A) (A) (A)
                 (A) (A) (A) (A) (A) (A) (A) (A) (A) (A) (A) (A)
                 (A) (A) (A) (A) (A) (A) (A) (A) (A) (A) (A) (A)
                 (A) (A) (A) (A) (A) (A) (A) (A) (A) (A) (A) (A)
                 (A) (A) (A) (A) (A) (A) (A) (A) (A) (A) (A) (A)
                 (A) (A) (A) (A) (A) (A) (A) (A) (A) (A) (A) (A)
                 (A) (A) (A) (A) (A) (A) (A) (A) (A) (A) (A) (A)
                 (A) (A) (A) (A) (A) (A) (A) (A) (A) (A) (A) (A)
                 (A) (A) (A) (A) (A) (A) (A) (A) (A) (A) (A) (A)
                 (A) (A) (A) (A) (A) (A) (A) (A) (A) (A) (A) (A)
                 (A) (A) (A) (A) (A) (A) (A) (A) (A) (A) (A) (A)
                 (A)
       Virtual   (A) (A) (A) (A) (A) (A) (A) (A) (A) (A) (A) (A)
                 (A) (A) (A) (A) (A) (A) (A) (A) (A) (A) (A) (A)
                 (A) (A) (A) (A) (A) (A) (A) (A) (A) (A) (A) (A)
                 (A) (A) (A) (A) (A) (A) (A) (A) (A) (A) (A) (A)
                 (A) (A) (A) (A) (A) (A) (A) (A) (A) (A) (A) (A)
                 (A) (A) (A) (A) (A) (A) (A) (A) (A) (A) (A) (A)
                 (A) (A) (A) (A) (A) (A) (A) (A) (A) (A) (A) (A)
                 (A) (A) (A) (A) (A) (A) (A) (A) (A) (A) (A) (A)
                 (A) (A) (A) (A) (A) (A) (A) (A) (A) (A) (A) (A)
                 (A) (A) (A) (A) (A) (A) (A) (A) (A) (A) (A) (A)
                 (A) (A) (A) (A) (A) (A) (A) (A) (A) (A) (A) (A)
                 (A) (A) (A) (A) (A) (A) (A) (A) (A) (A) (A) (A)
                 (A) (A) (A) (A) (A) (A) (A) (A) (A) (A) (A) (A)
                 (A) (A) (A) (A) (A) (A) (A) (A) (A) (A) (A) (A)
                 (A) (A) (A) (A) (A) (A) (A) (A) (A) (A) (A) (A)
                 (A) (A) (A) (A) (A) (A) (A) (A) (A) (A) (A) (A)
                 (A) (A) (A) (A) (A) (A) (A) (A) (A) (A) (A) (A)
                 (A) (A) (A) (A) (A) (A) (A) (A) (A) (A) (A) (A)
                 (A) (A) (A) (A) (A) (A) (A) (A) (A) (A) (A) (A)
                 (A) (A) (A) (A) (A) (A) (A) (A) (A) (A) (A) (A)
                 (A) (A) (A) (A) (A) (A) (A) (A) (A) (A) (A) (A)
                 (A) (A) (A) (A) (A) (A) (A) (A) (A) (A) (A) (A)
                 (A) (A) (A) (A) (A) (A) (A) (A) (A) (A) (A) (A)
                 (A) (A) (A) (A) (A) (A) (A) (A) (A) (A) (A) (A)
                 (A) (A) (A) (A) (A) (A) (A) (A) (A) (A) (A) (A)
                 (A) (A) (A) (A) (A) (A) (A) (A) (A) (A) (A) (A)
                 (A) (A) (A) (A) (A) (A) (A) (A) (A) (A) (A) (A)
                 (A) (A) (A) (A) (A) (A) (A) (A) (A) (A) (A) (A)
                 (A) (A) (A) (A) (A) (A) (A) (A) (A) (A) (A) (A)
                 (A) (A) (A) (A) (A) (A) (A) (A) (A) (A) (A) (A)
                 (A) (A) (A) (A) (A) (A) (A) (A) (A) (A) (A) (A)
                 (A) (A) (A) (A) (A) (A) (A) (A) (A) (A) (A) (A)
                 (A) (A) (A) (A) (A) (A) (A) (A) (A) (A) (A) (A)
                 (A) (A) (A) (A) (A) (A) (A) (A) (A) (A) (A) (A)
                 (A) (A) (A) (A) (A) (A) (A) (A) (A) (A) (A) (A)
                 (A) (A) (A) (A) (A) (A) (A) (A) (A) (A) (A) (A)
                 (A) (A) (A) (A) (A) (A) (A) (A) (A) (A) (A) (A)
                 (A) (A) (A) (A) (A) (A) (A) (A) (A) (A) (A) (A)
                 (A) (A) (A) (A) (A) (A) (A) (A) (A) (A) (A) (A)
                 (A) (A) (A) (A) (A) (A) (A) (A) (A) (A) (A) (A)
                 (A) (A) (A) (A) (A) (A) (A) (A) (A) (A) (A) (A)
                 (A) (A) (A) (A) (A) (A) (A) (A) (A) (A) (A) (A)
                 (A) (A) (A) (A) (A) (A) (A) (A) (A) (A) (A) (A)
                 (A) (A) (A) (A) (A) (A) (A) (A) (A) (A) (A) (A)
                 (A) (A) (A) (A) (A) (A) (A) (A) (A) (A) (A) (A)
                 (A) (A) (A) (A) (A) (A) (A) (A) (A) (A) (A) (A)
                 (A) (A) (A) (A) (A) (A) (A) (A) (A) (A) (A) (A)
                 (A) (A) (A) (A) (A) (A) (A) (A) (A) (A) (A) (A)
                 (A) (A) (A) (A) (A) (A) (A) (A) (A) (A) (A) (A)
                 (A) (A) (A) (A) (A) (A) (A) (A) (A) (A) (A) (A)
                 (A) (A) (A) (A) (A) (A) (A) (A) (A) (A) (A) (A)
                 (A) (A) (A) (A) (A) (A) (A) (A) (A) (A) (A) (A)
                 (A) (A) (A) (A) (A) (A) (A) (A) (A) (A) (A) (A)
                 (A) (A) (A) (A) (A) (A) (A) (A) (A) (A) (A) (A)
                 (A) (A) (A) (A) (A) (A) (A) (A) (A) (A) (A) (A)
                 (A) (A) (A) (A) (A) (A) (A) (A) (A) (A) (A) (A)
                 (A) (A) (A) (A) (A) (A) (A) (A) (A) (A) (A) (A)
                 (A) (A) (A) (A) (A) (A) (A) (A) (A) (A) (A) (A)
                 (A) (A) (A) (A) (A) (A) (A) (A) (A) (A) (A) (A)
                 (A) (A) (A) (A) (A) (A) (A) (A) (A) (A) (A) (A)
                 (A) (A) (A) (A) (A) (A) (A) (A) (A) (A) (A) (A)
                 (A) (A) (A) (A) (A) (A) (A) (A) (A) (A) (A) (A)
                 (A) (A) (A) (A) (A) (A) (A) (A) (A) (A) (A) (A)
                 (A) (A) (A) (A) (A) (A) (A) (A) (A) (A) (A) (A)
                 (A) (A) (A) (A) (A) (A) (A) (A) (A) (A) (A) (A)
                 (A) (A) (A) (A) (A) (A) (A) (A) (A) (A) (A) (A)
                 (A) (A) (A) (A) (A) (A) (A) (A) (A) (A) (A) (A)
                 (A) (A) (A) (A) (A) (A) (A) (A) (A) (A) (A) (A)
                 (A) (A) (A) (A) (A) (A) (A) (A) (A) (A) (A) (A)
                 (A) (A) (A) (A) (A) (A) (A) (A) (A) (A) (A) (A)
                 (A) (A) (A) (A) (A) (A) (A) (A) (A) (A) (A) (A)
                 (A) (A) (A) (A) (A) (A) (A) (A) (A) (A) (A) (A)
                 (A) (A) (A) (A) (A) (A) (A) (A) (A) (A) (A) (A)
                 (A) (A) (A) (A) (A) (A) (A) (A) (A) (A) (A) (A)
                 (A) (A) (A) (A) (A) (A) (A) (A) (A) (A) (A) (A)
                 (A) (A) (A) (A) (A) (A) (A) (A) (A) (A) (A) (A)
                 (A) (A) (A) (A) (A) (A) (A) (A) (A) (A) (A) (A)
                 (A) (A) (A) (A) (A) (A) (A) (A) (A) (A) (A) (A)
                 (A) (A) (A) (A) (A) (A) (A) (A) (A) (A) (A) (A)
                 (A) (A) (A) (A) (A) (A) (A) (A) (A) (A) (A) (A)
                 (A) (A) (A) (A) (A) (A) (A) (A) (A) (A) (A) (A)
                 (A) (A) (A) (A) (A) (A) (A) (A) (A) (A) (A) (A)
                 (A) (A) (A) (A) (A) (A) (A) (A) (A) (A) (A) (A)
                 (A) (A) (A) (A) (A) (A) (A) (A) (A) (A) (A) (A)
                 (A) (A) (A) (A) (A) (A) (A) (A) (A) (A) (A) (A)
                 (A) (A) (A) (A) (A) (A) (A) (A) (A) (A) (A) (A)
                 (A) (A) (A) (A) (A) (A) (A) (A) (A) (A) (A) (A)
                 (A) (A) (A) (A) (A) (A) (A) (A) (A) (A) (A) (A)
                 (A) (A) (A) (A) (A) (A) (A) (A) (A) (A) (A) (A)
                 (A) (A) (A) (A) (A) (A) (A) (A) (A) (A) (A) (A)
                 (A) (A) (A) (A) (A) (A) (A) (A) (A) (A) (A) (A)
                 (A) (A) (A) (A) (A) (A) (A) (A) (A) (A) (A) (A)
                 (A) (A) (A) (A) (A) (A) (A) (A) (A) (A) (A) (A)
                 (A) (A) (A) (A) (A) (A) (A) (A) (A) (A) (A) (A)
                 (A) (A) (A) (A) (A) (A) (A) (A) (A) (A) (A) (A)
                 (A) (A) (A) (A) (A) (A) (A) (A) (A) (A) (A) (A)
                 (A) (A) (A) (A) (A) (A) (A) (A) (A) (A) (A) (A)
                 (A) (A) (A) (A) (A) (A) (A) (A) (A) (A) (A) (A)
                 (A) (A) (A) (A) (A) (A) (A) (A) (A) (A) (A) (A)
                 (A) (A) (A) (A) (A) (A) (A) (A) (A) (A) (A) (A)
                 (A) (A) (A) (A) (A) (A) (A) (A) (A) (A) (A) (A)
                 (A) (A) (A) (A) (A) (A) (A) (A) (A) (A) (A) (A)
                 (A) (A) (A) (A) (A) (A) (A) (A) (A) (A) (A) (A)
                 (A) (A) (A) (A) (A) (A) (A) (A) (A) (A) (A) (A)
                 (A) (A) (A) (A) (A) (A) (A) (A) (A) (A) (A) (A)
                 (A) (A) (A) (A) (A) (A) (A) (A) (A) (A) (A) (A)
                 (A) (A) (A) (A) (A) (A) (A) (A) (A) (A) (A) (A)
                 (A) (A) (A) (A) (A) (A) (A) (A) (A) (A) (A) (A)
                 (A) (A) (A) (A) (A) (A) (A) (A) (A) (A) (A) (A)
                 (A) (A) (A) (A) (A) (A) (A) (A) (A) (A) (A) (A)
                 (A) (A) (A) (A) (A) (A) (A) (A) (A) (A) (A) (A)
                 (A) (A) (A) (A) (A) (A) (A) (A) (A) (A) (A) (A)
                 (A) (A) (A) (A) (A) (A) (A) (A) (A) (A) (A) (A)
                 (A) (A) (A) (A) (A) (A) (A) (A) (A) (A) (A) (A)
                 (A) (A) (A) (A) (A) (A) (A) (A) (A) (A) (A) (A)
                 (A) (A) (A) (A) (A) (A) (A) (A) (A) (A) (A) (A)
                 (A) (A) (A) (A) (A) (A) (A) (A) (A) (A) (A) (A)
                 (A) (A) (A) (A) (A) (A) (A) (A) (A) (A) (A) (A)
                 (A) (A) (A) (A) (A) (A) (A) (A) (A) (A) (A) (A)
                 (A) (A) (A) (A) (A) (A) (A) (A) (A) (A) (A) (A)
                 (A) (A) (A) (A) (A) (A) (A) (A) (A) (A) (A) (A)
                 (A) (A) (A) (A) (A) (A) (A) (A) (A) (A) (A) (A)
                 (A) (A) (A) (A) (A) (A) (A) (A) (A) (A) (A) (A)
                 (A) (A) (A) (A) (A) (A) (A) (A) (A) (A) (A) (A)
                 (A) (A) (A) (A) (A) (A) (A) (A) (A) (A) (A) (A)
                 (A) (A) (A) (A) (A) (A) (A) (A) (A) (A) (A) (A)
                 (A) (A) (A) (A) (A) (A) (A) (A) (A) (A) (A) (A)
                 (A) (A) (A) (A) (A) (A) (A) (A) (A) (A) (A) (A)
                 (A) (A) (A) (A) (A) (A) (A) (A) (A) (A) (A) (A)
                 (A) (A) (A) (A) (A) (A) (A) (A) (A) (A) (A) (A)
                 (A) (A) (A) (A) (A) (A) (A) (A) (A) (A) (A) (A)
                 (A) (A) (A) (A) (A) (A) (A) (A) (A) (A) (A) (A)
                 (A) (A) (A) (A) (A) (A) (A) (A) (A) (A) (A) (A)
                 (A) (A) (A) (A) (A) (A) (A) (A) (A) (A) (A) (A)
                 (A) (A) (A) (A) (A) (A) (A) (A) (A) (A) (A) (A)
                 (A) (A) (A) (A) (A) (A) (A) (A) (A) (A) (A) (A)
                 (A) (A) (A) (A) (A) (A) (A) (A) (A) (A) (A) (A)
                 (A) (A) (A) (A) (A) (A) (A) (A) (A) (A) (A) (A)
                 (A) (A) (A) (A) (A) (A) (A) (A) (A) (A) (A) (A)
                 (A) (A) (A) (A) (A) (A) (A) (A) (A) (A) (A) (A)
                 (A) (A) (A) (A) (A) (A) (A) (A) (A) (A) (A) (A)
                 (A) (A) (A) (A) (A) (A) (A) (A) (A) (A) (A) (A)
                 (A) (A) (A) (A) (A) (A) (A) (A) (A) (A) (A) (A)
                 (A) (A) (A) (A) (A) (A) (A) (A) (A) (A) (A) (A)
                 (A) (A) (A) (A) (A) (A) (A) (A) (A) (A) (A) (A)
                 (A) (A) (A) (A) (A) (A) (A) (A) (A) (A) (A) (A)
                 (A) (A) (A) (A) (A) (A)
 The electronic state is 2-A.
 Alpha  occ. eigenvalues -- -256.43777 -89.08697 -30.22439 -26.05551 -26.05149
 Alpha  occ. eigenvalues --  -26.03556 -19.27285 -19.26682 -19.19264 -19.19031
 Alpha  occ. eigenvalues --  -14.46892 -14.43516 -14.42602 -14.41923 -14.41689
 Alpha  occ. eigenvalues --  -14.41655 -10.36493 -10.36450 -10.31093 -10.30586
 Alpha  occ. eigenvalues --  -10.29505 -10.29331 -10.28853 -10.28808 -10.28700
 Alpha  occ. eigenvalues --  -10.28521 -10.28372 -10.28262 -10.28125 -10.26982
 Alpha  occ. eigenvalues --  -10.26746 -10.25935 -10.25571 -10.25558 -10.25447
 Alpha  occ. eigenvalues --  -10.25416 -10.25402 -10.25178 -10.24970 -10.24852
 Alpha  occ. eigenvalues --  -10.24793 -10.24501 -10.24312 -10.24283 -10.24187
 Alpha  occ. eigenvalues --  -10.23798 -10.23498 -10.22967 -10.22830 -10.22814
 Alpha  occ. eigenvalues --  -10.22799 -10.22357 -10.21265 -10.21155 -10.21012
 Alpha  occ. eigenvalues --  -10.20315 -10.19850  -8.06308  -6.00104  -5.99641
 Alpha  occ. eigenvalues --   -5.99056  -3.58038  -2.35333  -2.34295  -2.31024
 Alpha  occ. eigenvalues --   -1.18116  -1.17275  -1.09437  -1.03895  -1.03816
 Alpha  occ. eigenvalues --   -1.00936  -0.99858  -0.99354  -0.98225  -0.93986
 Alpha  occ. eigenvalues --   -0.89360  -0.87542  -0.87359  -0.87078  -0.86541
 Alpha  occ. eigenvalues --   -0.85952  -0.84363  -0.83714  -0.83313  -0.82359
 Alpha  occ. eigenvalues --   -0.81830  -0.81258  -0.80505  -0.80113  -0.78341
 Alpha  occ. eigenvalues --   -0.77383  -0.76002  -0.74550  -0.74314  -0.73809
 Alpha  occ. eigenvalues --   -0.72409  -0.72007  -0.71688  -0.71097  -0.68660
 Alpha  occ. eigenvalues --   -0.68572  -0.67258  -0.66596  -0.66289  -0.65590
 Alpha  occ. eigenvalues --   -0.65410  -0.64672  -0.63049  -0.62071  -0.60862
 Alpha  occ. eigenvalues --   -0.59192  -0.58835  -0.57655  -0.57525  -0.56619
 Alpha  occ. eigenvalues --   -0.55412  -0.55183  -0.54688  -0.54174  -0.53020
 Alpha  occ. eigenvalues --   -0.52792  -0.52636  -0.52429  -0.51907  -0.51793
 Alpha  occ. eigenvalues --   -0.51590  -0.51487  -0.51109  -0.50828  -0.50702
 Alpha  occ. eigenvalues --   -0.50482  -0.50390  -0.50203  -0.49739  -0.49318
 Alpha  occ. eigenvalues --   -0.48699  -0.48175  -0.47913  -0.47827  -0.47251
 Alpha  occ. eigenvalues --   -0.47063  -0.46512  -0.46430  -0.46095  -0.45885
 Alpha  occ. eigenvalues --   -0.45222  -0.45044  -0.44948  -0.44777  -0.44285
 Alpha  occ. eigenvalues --   -0.44255  -0.44100  -0.43873  -0.43702  -0.43334
 Alpha  occ. eigenvalues --   -0.43100  -0.42902  -0.42504  -0.42320  -0.42296
 Alpha  occ. eigenvalues --   -0.41880  -0.41788  -0.41592  -0.41439  -0.40909
 Alpha  occ. eigenvalues --   -0.40732  -0.40608  -0.40324  -0.40030  -0.39731
 Alpha  occ. eigenvalues --   -0.39653  -0.39448  -0.39219  -0.39059  -0.38684
 Alpha  occ. eigenvalues --   -0.38491  -0.37686  -0.37345  -0.36776  -0.36764
 Alpha  occ. eigenvalues --   -0.36565  -0.36040  -0.35802  -0.35602  -0.35457
 Alpha  occ. eigenvalues --   -0.34594  -0.34021  -0.33904  -0.33839  -0.33663
 Alpha  occ. eigenvalues --   -0.32856  -0.32673  -0.31054  -0.30757  -0.29391
 Alpha  occ. eigenvalues --   -0.29197  -0.28926  -0.27977  -0.27162  -0.26611
 Alpha  occ. eigenvalues --   -0.26124  -0.25743  -0.23747  -0.23361  -0.22551
 Alpha  occ. eigenvalues --   -0.21828
 Alpha virt. eigenvalues --   -0.10728  -0.10675  -0.10352  -0.06490  -0.06146
 Alpha virt. eigenvalues --   -0.04306  -0.02165  -0.01662  -0.01031  -0.00359
 Alpha virt. eigenvalues --    0.00612   0.00816   0.01656   0.02062   0.02295
 Alpha virt. eigenvalues --    0.02819   0.03129   0.03271   0.03604   0.03670
 Alpha virt. eigenvalues --    0.04171   0.04301   0.04622   0.05315   0.05482
 Alpha virt. eigenvalues --    0.05925   0.06076   0.06209   0.06532   0.06711
 Alpha virt. eigenvalues --    0.06987   0.07248   0.07512   0.07779   0.08008
 Alpha virt. eigenvalues --    0.08118   0.08602   0.08981   0.09288   0.09377
 Alpha virt. eigenvalues --    0.09776   0.09913   0.10240   0.10422   0.10603
 Alpha virt. eigenvalues --    0.10717   0.10929   0.11090   0.11445   0.11635
 Alpha virt. eigenvalues --    0.11685   0.11881   0.12066   0.12288   0.12524
 Alpha virt. eigenvalues --    0.12693   0.12747   0.12963   0.13329   0.13396
 Alpha virt. eigenvalues --    0.13537   0.13574   0.13771   0.14032   0.14241
 Alpha virt. eigenvalues --    0.14434   0.14669   0.14919   0.15000   0.15097
 Alpha virt. eigenvalues --    0.15381   0.15581   0.15995   0.16069   0.16337
 Alpha virt. eigenvalues --    0.16686   0.17207   0.17293   0.17520   0.17731
 Alpha virt. eigenvalues --    0.17848   0.17942   0.18055   0.18531   0.18623
 Alpha virt. eigenvalues --    0.18866   0.19012   0.19029   0.19219   0.19426
 Alpha virt. eigenvalues --    0.19596   0.19676   0.19794   0.20073   0.20466
 Alpha virt. eigenvalues --    0.20595   0.20871   0.21010   0.21053   0.21282
 Alpha virt. eigenvalues --    0.21690   0.21784   0.21917   0.22141   0.22403
 Alpha virt. eigenvalues --    0.22555   0.22704   0.22804   0.23197   0.23285
 Alpha virt. eigenvalues --    0.23484   0.23669   0.23960   0.24004   0.24161
 Alpha virt. eigenvalues --    0.24277   0.24442   0.24824   0.24901   0.25138
 Alpha virt. eigenvalues --    0.25257   0.25465   0.25614   0.25790   0.25953
 Alpha virt. eigenvalues --    0.26132   0.26375   0.26709   0.26793   0.26902
 Alpha virt. eigenvalues --    0.27128   0.27483   0.27791   0.28259   0.28302
 Alpha virt. eigenvalues --    0.28512   0.28836   0.29058   0.29296   0.29352
 Alpha virt. eigenvalues --    0.29792   0.29957   0.30137   0.30434   0.30829
 Alpha virt. eigenvalues --    0.30969   0.31220   0.31463   0.31696   0.31807
 Alpha virt. eigenvalues --    0.32230   0.32545   0.32587   0.32866   0.33026
 Alpha virt. eigenvalues --    0.33358   0.33451   0.33870   0.34002   0.34274
 Alpha virt. eigenvalues --    0.34558   0.34609   0.35022   0.35303   0.35550
 Alpha virt. eigenvalues --    0.35654   0.35870   0.35897   0.36217   0.36372
 Alpha virt. eigenvalues --    0.36481   0.36728   0.36940   0.37138   0.37193
 Alpha virt. eigenvalues --    0.37484   0.37760   0.37835   0.38127   0.38380
 Alpha virt. eigenvalues --    0.38566   0.38896   0.39001   0.39192   0.39417
 Alpha virt. eigenvalues --    0.39793   0.39978   0.40051   0.40261   0.40437
 Alpha virt. eigenvalues --    0.40655   0.40768   0.40894   0.41022   0.41072
 Alpha virt. eigenvalues --    0.41192   0.41552   0.41623   0.41793   0.42044
 Alpha virt. eigenvalues --    0.42249   0.42350   0.42469   0.42711   0.43060
 Alpha virt. eigenvalues --    0.43071   0.43308   0.43538   0.43655   0.43875
 Alpha virt. eigenvalues --    0.43953   0.44114   0.44276   0.44327   0.44659
 Alpha virt. eigenvalues --    0.44898   0.45099   0.45155   0.45295   0.45408
 Alpha virt. eigenvalues --    0.45572   0.45774   0.46010   0.46094   0.46119
 Alpha virt. eigenvalues --    0.46336   0.46600   0.46797   0.47102   0.47115
 Alpha virt. eigenvalues --    0.47229   0.47294   0.47595   0.47669   0.47917
 Alpha virt. eigenvalues --    0.48063   0.48368   0.48561   0.48719   0.48814
 Alpha virt. eigenvalues --    0.48928   0.49147   0.49191   0.49326   0.49444
 Alpha virt. eigenvalues --    0.49768   0.49833   0.50180   0.50366   0.50583
 Alpha virt. eigenvalues --    0.50738   0.50892   0.51056   0.51271   0.51409
 Alpha virt. eigenvalues --    0.51493   0.51675   0.51793   0.51852   0.52083
 Alpha virt. eigenvalues --    0.52242   0.52585   0.52748   0.52872   0.52935
 Alpha virt. eigenvalues --    0.53219   0.53391   0.53575   0.53864   0.53926
 Alpha virt. eigenvalues --    0.54156   0.54491   0.54600   0.54811   0.55067
 Alpha virt. eigenvalues --    0.55187   0.55318   0.55646   0.55714   0.55803
 Alpha virt. eigenvalues --    0.56170   0.56251   0.56714   0.56903   0.57249
 Alpha virt. eigenvalues --    0.57461   0.57731   0.57926   0.58226   0.58254
 Alpha virt. eigenvalues --    0.58355   0.58486   0.58775   0.58859   0.59253
 Alpha virt. eigenvalues --    0.59414   0.59776   0.59812   0.59973   0.60602
 Alpha virt. eigenvalues --    0.60751   0.60833   0.61187   0.61478   0.61662
 Alpha virt. eigenvalues --    0.61908   0.62328   0.62603   0.62689   0.62856
 Alpha virt. eigenvalues --    0.62941   0.63141   0.63324   0.63796   0.63873
 Alpha virt. eigenvalues --    0.64357   0.64591   0.64902   0.65167   0.65283
 Alpha virt. eigenvalues --    0.65843   0.66276   0.66362   0.66449   0.66882
 Alpha virt. eigenvalues --    0.67176   0.67488   0.67597   0.67960   0.68031
 Alpha virt. eigenvalues --    0.68305   0.68368   0.68878   0.68970   0.69346
 Alpha virt. eigenvalues --    0.69541   0.69697   0.69856   0.70365   0.70674
 Alpha virt. eigenvalues --    0.70941   0.71109   0.71198   0.71452   0.72347
 Alpha virt. eigenvalues --    0.72370   0.72458   0.72782   0.73181   0.73419
 Alpha virt. eigenvalues --    0.73618   0.73965   0.74360   0.74760   0.74918
 Alpha virt. eigenvalues --    0.75235   0.75375   0.75669   0.76175   0.76289
 Alpha virt. eigenvalues --    0.76849   0.77149   0.77491   0.77836   0.77988
 Alpha virt. eigenvalues --    0.78330   0.78579   0.78691   0.78778   0.79352
 Alpha virt. eigenvalues --    0.79765   0.80262   0.80388   0.80699   0.80966
 Alpha virt. eigenvalues --    0.81429   0.81679   0.82003   0.82144   0.82313
 Alpha virt. eigenvalues --    0.82665   0.83020   0.83161   0.83557   0.83803
 Alpha virt. eigenvalues --    0.83871   0.84543   0.84929   0.84982   0.85375
 Alpha virt. eigenvalues --    0.85700   0.85782   0.86004   0.86375   0.87035
 Alpha virt. eigenvalues --    0.87311   0.87547   0.87710   0.87797   0.88161
 Alpha virt. eigenvalues --    0.88340   0.88443   0.88772   0.89299   0.89377
 Alpha virt. eigenvalues --    0.89755   0.89807   0.90364   0.90652   0.90691
 Alpha virt. eigenvalues --    0.91103   0.91289   0.91510   0.91852   0.92102
 Alpha virt. eigenvalues --    0.92384   0.92739   0.93075   0.93178   0.93461
 Alpha virt. eigenvalues --    0.93671   0.93958   0.94005   0.94394   0.94604
 Alpha virt. eigenvalues --    0.94699   0.95023   0.95359   0.95420   0.95643
 Alpha virt. eigenvalues --    0.95992   0.96422   0.96473   0.96698   0.97040
 Alpha virt. eigenvalues --    0.97094   0.97315   0.97806   0.97936   0.98179
 Alpha virt. eigenvalues --    0.98828   0.98893   0.99359   0.99496   0.99770
 Alpha virt. eigenvalues --    1.00271   1.00308   1.00623   1.00694   1.01017
 Alpha virt. eigenvalues --    1.01485   1.01744   1.02176   1.02531   1.02760
 Alpha virt. eigenvalues --    1.02849   1.02922   1.03488   1.03794   1.04004
 Alpha virt. eigenvalues --    1.04303   1.04607   1.05011   1.05320   1.05573
 Alpha virt. eigenvalues --    1.05672   1.05761   1.06099   1.06556   1.06814
 Alpha virt. eigenvalues --    1.07012   1.07770   1.07920   1.08260   1.08438
 Alpha virt. eigenvalues --    1.08580   1.08916   1.09433   1.09806   1.09988
 Alpha virt. eigenvalues --    1.10059   1.10810   1.10949   1.11321   1.11670
 Alpha virt. eigenvalues --    1.12128   1.12141   1.12535   1.12840   1.13154
 Alpha virt. eigenvalues --    1.13240   1.13750   1.13899   1.14848   1.14935
 Alpha virt. eigenvalues --    1.15214   1.15703   1.15908   1.16278   1.17059
 Alpha virt. eigenvalues --    1.17211   1.17252   1.17600   1.17773   1.18253
 Alpha virt. eigenvalues --    1.18507   1.18867   1.19398   1.19651   1.19809
 Alpha virt. eigenvalues --    1.20372   1.20498   1.20869   1.21268   1.21581
 Alpha virt. eigenvalues --    1.22124   1.22183   1.22399   1.22874   1.22895
 Alpha virt. eigenvalues --    1.23518   1.23859   1.24252   1.24518   1.25023
 Alpha virt. eigenvalues --    1.25138   1.25510   1.25880   1.26255   1.26572
 Alpha virt. eigenvalues --    1.26684   1.27018   1.27364   1.27498   1.27653
 Alpha virt. eigenvalues --    1.28228   1.28666   1.28946   1.29198   1.29904
 Alpha virt. eigenvalues --    1.29985   1.30140   1.30619   1.30891   1.31640
 Alpha virt. eigenvalues --    1.32106   1.32183   1.32295   1.33074   1.33927
 Alpha virt. eigenvalues --    1.34125   1.34474   1.34686   1.34861   1.35045
 Alpha virt. eigenvalues --    1.35405   1.35909   1.36016   1.36746   1.36875
 Alpha virt. eigenvalues --    1.37487   1.37956   1.38795   1.39244   1.39424
 Alpha virt. eigenvalues --    1.39941   1.40254   1.40983   1.41127   1.41182
 Alpha virt. eigenvalues --    1.41371   1.41614   1.42394   1.42771   1.42972
 Alpha virt. eigenvalues --    1.43135   1.43583   1.44023   1.44226   1.44516
 Alpha virt. eigenvalues --    1.44786   1.45324   1.45366   1.45847   1.46253
 Alpha virt. eigenvalues --    1.46439   1.47068   1.47264   1.47724   1.47796
 Alpha virt. eigenvalues --    1.48331   1.48526   1.48970   1.49258   1.49472
 Alpha virt. eigenvalues --    1.49694   1.50230   1.50998   1.51235   1.51420
 Alpha virt. eigenvalues --    1.51637   1.51783   1.52112   1.52587   1.52661
 Alpha virt. eigenvalues --    1.52761   1.52988   1.53330   1.53452   1.54032
 Alpha virt. eigenvalues --    1.54169   1.54813   1.54911   1.55033   1.55142
 Alpha virt. eigenvalues --    1.55466   1.55622   1.55939   1.56127   1.56259
 Alpha virt. eigenvalues --    1.56401   1.56642   1.56887   1.57144   1.57337
 Alpha virt. eigenvalues --    1.57470   1.57791   1.58109   1.58265   1.58493
 Alpha virt. eigenvalues --    1.58625   1.59046   1.59381   1.59586   1.59716
 Alpha virt. eigenvalues --    1.60128   1.60315   1.60819   1.61143   1.61233
 Alpha virt. eigenvalues --    1.61370   1.61546   1.61879   1.62042   1.62308
 Alpha virt. eigenvalues --    1.62457   1.63016   1.63269   1.63347   1.63460
 Alpha virt. eigenvalues --    1.63880   1.64233   1.64547   1.64956   1.65233
 Alpha virt. eigenvalues --    1.65403   1.65584   1.65942   1.66292   1.66443
 Alpha virt. eigenvalues --    1.66931   1.66973   1.67129   1.67549   1.68030
 Alpha virt. eigenvalues --    1.68147   1.68369   1.68933   1.69076   1.69157
 Alpha virt. eigenvalues --    1.69496   1.70005   1.70144   1.70568   1.70673
 Alpha virt. eigenvalues --    1.71266   1.71352   1.71533   1.71853   1.72164
 Alpha virt. eigenvalues --    1.72357   1.72563   1.72795   1.73034   1.73422
 Alpha virt. eigenvalues --    1.73683   1.73947   1.74218   1.74705   1.74899
 Alpha virt. eigenvalues --    1.75170   1.75578   1.75836   1.76324   1.76711
 Alpha virt. eigenvalues --    1.76774   1.77146   1.77339   1.77561   1.77837
 Alpha virt. eigenvalues --    1.78290   1.78740   1.79330   1.79698   1.79966
 Alpha virt. eigenvalues --    1.80324   1.80735   1.81225   1.81486   1.81990
 Alpha virt. eigenvalues --    1.82061   1.82249   1.82484   1.82689   1.83419
 Alpha virt. eigenvalues --    1.83499   1.84017   1.84311   1.84769   1.84882
 Alpha virt. eigenvalues --    1.85562   1.85886   1.86209   1.86370   1.86749
 Alpha virt. eigenvalues --    1.86972   1.87501   1.87741   1.88049   1.88584
 Alpha virt. eigenvalues --    1.88754   1.89335   1.89843   1.90104   1.90325
 Alpha virt. eigenvalues --    1.90703   1.91118   1.91291   1.91511   1.91861
 Alpha virt. eigenvalues --    1.92163   1.92299   1.92795   1.92990   1.93254
 Alpha virt. eigenvalues --    1.93568   1.93782   1.94224   1.94419   1.94594
 Alpha virt. eigenvalues --    1.94865   1.95053   1.95642   1.95868   1.96460
 Alpha virt. eigenvalues --    1.96655   1.97021   1.97372   1.97533   1.97661
 Alpha virt. eigenvalues --    1.97948   1.98527   1.98821   1.99455   1.99522
 Alpha virt. eigenvalues --    2.00011   2.00267   2.00753   2.00931   2.01353
 Alpha virt. eigenvalues --    2.01878   2.02016   2.02246   2.02548   2.03094
 Alpha virt. eigenvalues --    2.03563   2.04004   2.04284   2.04589   2.04832
 Alpha virt. eigenvalues --    2.05192   2.05291   2.05374   2.05944   2.06313
 Alpha virt. eigenvalues --    2.06774   2.06893   2.07357   2.07836   2.08220
 Alpha virt. eigenvalues --    2.08432   2.08800   2.09100   2.09488   2.10250
 Alpha virt. eigenvalues --    2.10749   2.10877   2.11243   2.11694   2.12201
 Alpha virt. eigenvalues --    2.12234   2.12386   2.12650   2.12715   2.13073
 Alpha virt. eigenvalues --    2.13510   2.13663   2.14120   2.14255   2.14620
 Alpha virt. eigenvalues --    2.14862   2.15092   2.15663   2.16351   2.16708
 Alpha virt. eigenvalues --    2.16931   2.17381   2.17533   2.17894   2.18077
 Alpha virt. eigenvalues --    2.18514   2.18908   2.19405   2.19924   2.20350
 Alpha virt. eigenvalues --    2.20547   2.20590   2.20982   2.21276   2.21597
 Alpha virt. eigenvalues --    2.21958   2.22386   2.22752   2.22921   2.23278
 Alpha virt. eigenvalues --    2.23441   2.24185   2.24699   2.25139   2.25326
 Alpha virt. eigenvalues --    2.25957   2.26558   2.26803   2.26973   2.27486
 Alpha virt. eigenvalues --    2.27541   2.28086   2.28332   2.28689   2.29099
 Alpha virt. eigenvalues --    2.29302   2.29832   2.30123   2.30308   2.30942
 Alpha virt. eigenvalues --    2.31038   2.31682   2.32013   2.32310   2.32831
 Alpha virt. eigenvalues --    2.33355   2.33606   2.33721   2.34016   2.34231
 Alpha virt. eigenvalues --    2.34350   2.34853   2.34970   2.35221   2.35754
 Alpha virt. eigenvalues --    2.35896   2.36379   2.36482   2.37199   2.37334
 Alpha virt. eigenvalues --    2.37871   2.38016   2.38180   2.38352   2.38695
 Alpha virt. eigenvalues --    2.39138   2.39605   2.39747   2.40154   2.40399
 Alpha virt. eigenvalues --    2.40674   2.41025   2.41373   2.41867   2.42346
 Alpha virt. eigenvalues --    2.42745   2.43097   2.43229   2.43645   2.43930
 Alpha virt. eigenvalues --    2.44323   2.44669   2.45038   2.45548   2.45775
 Alpha virt. eigenvalues --    2.45804   2.46412   2.46867   2.47554   2.47808
 Alpha virt. eigenvalues --    2.47937   2.48424   2.48769   2.49189   2.49416
 Alpha virt. eigenvalues --    2.49656   2.50042   2.50532   2.50777   2.51247
 Alpha virt. eigenvalues --    2.51276   2.51874   2.52156   2.52311   2.52554
 Alpha virt. eigenvalues --    2.53494   2.53831   2.54198   2.54513   2.54753
 Alpha virt. eigenvalues --    2.54974   2.55313   2.55657   2.55937   2.56264
 Alpha virt. eigenvalues --    2.56382   2.56901   2.57263   2.57704   2.57939
 Alpha virt. eigenvalues --    2.58158   2.58333   2.58712   2.58966   2.59094
 Alpha virt. eigenvalues --    2.59543   2.59895   2.60341   2.60451   2.60705
 Alpha virt. eigenvalues --    2.61025   2.61255   2.61545   2.61907   2.62168
 Alpha virt. eigenvalues --    2.62448   2.62550   2.62979   2.63522   2.63689
 Alpha virt. eigenvalues --    2.63965   2.64381   2.64691   2.64804   2.65190
 Alpha virt. eigenvalues --    2.65308   2.65566   2.65937   2.66171   2.66336
 Alpha virt. eigenvalues --    2.66494   2.66899   2.67644   2.68036   2.68098
 Alpha virt. eigenvalues --    2.68703   2.68799   2.68915   2.69079   2.69423
 Alpha virt. eigenvalues --    2.69725   2.69904   2.70366   2.70602   2.70881
 Alpha virt. eigenvalues --    2.71353   2.71815   2.71872   2.72376   2.72667
 Alpha virt. eigenvalues --    2.72885   2.73005   2.73275   2.73518   2.73572
 Alpha virt. eigenvalues --    2.74016   2.74192   2.74725   2.75128   2.75418
 Alpha virt. eigenvalues --    2.75509   2.75693   2.76078   2.76170   2.76797
 Alpha virt. eigenvalues --    2.77020   2.77347   2.77655   2.77792   2.78051
 Alpha virt. eigenvalues --    2.78429   2.79008   2.79240   2.79553   2.79664
 Alpha virt. eigenvalues --    2.80375   2.80570   2.80697   2.81068   2.81314
 Alpha virt. eigenvalues --    2.82194   2.82464   2.82631   2.82720   2.83099
 Alpha virt. eigenvalues --    2.83435   2.83565   2.83783   2.84354   2.84561
 Alpha virt. eigenvalues --    2.85141   2.85834   2.86278   2.86556   2.86743
 Alpha virt. eigenvalues --    2.86799   2.87085   2.87782   2.88038   2.88245
 Alpha virt. eigenvalues --    2.88756   2.88833   2.89168   2.89351   2.90236
 Alpha virt. eigenvalues --    2.90482   2.90695   2.91277   2.91789   2.91972
 Alpha virt. eigenvalues --    2.92106   2.92754   2.93266   2.93591   2.93799
 Alpha virt. eigenvalues --    2.94091   2.94526   2.94848   2.94880   2.95150
 Alpha virt. eigenvalues --    2.95718   2.95892   2.95943   2.96505   2.96716
 Alpha virt. eigenvalues --    2.97162   2.97417   2.97663   2.97709   2.98036
 Alpha virt. eigenvalues --    2.98238   2.98680   2.98884   2.99483   2.99592
 Alpha virt. eigenvalues --    2.99740   3.00387   3.00685   3.00943   3.01069
 Alpha virt. eigenvalues --    3.01635   3.01759   3.01910   3.02228   3.02633
 Alpha virt. eigenvalues --    3.02846   3.03259   3.03720   3.04084   3.04232
 Alpha virt. eigenvalues --    3.04498   3.04759   3.05014   3.05534   3.06247
 Alpha virt. eigenvalues --    3.06343   3.06725   3.06891   3.07210   3.07558
 Alpha virt. eigenvalues --    3.07964   3.08041   3.08328   3.08650   3.08734
 Alpha virt. eigenvalues --    3.08821   3.09598   3.09721   3.09771   3.10433
 Alpha virt. eigenvalues --    3.10625   3.10974   3.11022   3.11198   3.11400
 Alpha virt. eigenvalues --    3.11966   3.12108   3.12402   3.12506   3.12662
 Alpha virt. eigenvalues --    3.13049   3.13185   3.13535   3.13960   3.14050
 Alpha virt. eigenvalues --    3.14160   3.14363   3.14540   3.15061   3.15257
 Alpha virt. eigenvalues --    3.15356   3.15546   3.15808   3.16234   3.16437
 Alpha virt. eigenvalues --    3.16729   3.16804   3.17216   3.17663   3.17854
 Alpha virt. eigenvalues --    3.18136   3.18247   3.18474   3.18540   3.18766
 Alpha virt. eigenvalues --    3.19533   3.19690   3.20125   3.20251   3.20638
 Alpha virt. eigenvalues --    3.20928   3.21005   3.21501   3.21567   3.21997
 Alpha virt. eigenvalues --    3.22216   3.22737   3.22892   3.23033   3.23734
 Alpha virt. eigenvalues --    3.23846   3.24092   3.24370   3.24770   3.24841
 Alpha virt. eigenvalues --    3.25167   3.25566   3.25695   3.25766   3.26088
 Alpha virt. eigenvalues --    3.26397   3.26581   3.26682   3.26819   3.27162
 Alpha virt. eigenvalues --    3.27608   3.27848   3.28144   3.28379   3.28480
 Alpha virt. eigenvalues --    3.29208   3.29393   3.29515   3.29754   3.29978
 Alpha virt. eigenvalues --    3.30346   3.30570   3.30763   3.31275   3.31529
 Alpha virt. eigenvalues --    3.31744   3.31791   3.31969   3.32064   3.32699
 Alpha virt. eigenvalues --    3.32941   3.33229   3.33347   3.33652   3.33867
 Alpha virt. eigenvalues --    3.34066   3.34628   3.34750   3.34937   3.35124
 Alpha virt. eigenvalues --    3.35335   3.35544   3.35884   3.36161   3.36176
 Alpha virt. eigenvalues --    3.36416   3.36635   3.36718   3.37092   3.37556
 Alpha virt. eigenvalues --    3.37636   3.37764   3.38084   3.38461   3.38667
 Alpha virt. eigenvalues --    3.38877   3.39163   3.39709   3.39822   3.40197
 Alpha virt. eigenvalues --    3.40258   3.40407   3.40561   3.41102   3.41168
 Alpha virt. eigenvalues --    3.41588   3.41737   3.41966   3.42267   3.42457
 Alpha virt. eigenvalues --    3.42694   3.42791   3.43083   3.43219   3.43654
 Alpha virt. eigenvalues --    3.43844   3.44333   3.44447   3.44774   3.45030
 Alpha virt. eigenvalues --    3.45548   3.45763   3.46016   3.46311   3.46887
 Alpha virt. eigenvalues --    3.47045   3.47112   3.47333   3.47638   3.47867
 Alpha virt. eigenvalues --    3.48485   3.48598   3.48852   3.49087   3.49439
 Alpha virt. eigenvalues --    3.49549   3.49735   3.50190   3.50549   3.51011
 Alpha virt. eigenvalues --    3.51555   3.51730   3.52289   3.52701   3.53059
 Alpha virt. eigenvalues --    3.53192   3.53358   3.53701   3.54008   3.54387
 Alpha virt. eigenvalues --    3.54695   3.54979   3.55308   3.55637   3.55871
 Alpha virt. eigenvalues --    3.56017   3.56808   3.57307   3.57467   3.57845
 Alpha virt. eigenvalues --    3.58211   3.58234   3.58788   3.59222   3.59288
 Alpha virt. eigenvalues --    3.59639   3.60132   3.60536   3.60873   3.61071
 Alpha virt. eigenvalues --    3.61303   3.61755   3.61875   3.62349   3.62532
 Alpha virt. eigenvalues --    3.63491   3.63885   3.63887   3.64174   3.64293
 Alpha virt. eigenvalues --    3.64929   3.65275   3.65398   3.65689   3.65896
 Alpha virt. eigenvalues --    3.66378   3.66598   3.66808   3.67153   3.67542
 Alpha virt. eigenvalues --    3.68076   3.68576   3.68972   3.69099   3.69386
 Alpha virt. eigenvalues --    3.69687   3.70202   3.70428   3.71093   3.71356
 Alpha virt. eigenvalues --    3.71554   3.72298   3.72588   3.72880   3.73209
 Alpha virt. eigenvalues --    3.73797   3.74161   3.74527   3.74854   3.75654
 Alpha virt. eigenvalues --    3.75847   3.76359   3.77023   3.77450   3.77869
 Alpha virt. eigenvalues --    3.78120   3.78909   3.79244   3.79287   3.79606
 Alpha virt. eigenvalues --    3.80289   3.80418   3.80770   3.81116   3.81514
 Alpha virt. eigenvalues --    3.82331   3.82646   3.83027   3.83372   3.84133
 Alpha virt. eigenvalues --    3.84492   3.84679   3.84873   3.85303   3.85879
 Alpha virt. eigenvalues --    3.86132   3.86322   3.86453   3.87188   3.87527
 Alpha virt. eigenvalues --    3.87905   3.88298   3.88761   3.89179   3.89521
 Alpha virt. eigenvalues --    3.90062   3.90257   3.90470   3.91449   3.91755
 Alpha virt. eigenvalues --    3.92143   3.92329   3.92568   3.92876   3.93708
 Alpha virt. eigenvalues --    3.94086   3.95122   3.95278   3.95894   3.96163
 Alpha virt. eigenvalues --    3.96766   3.96949   3.97167   3.97438   3.98032
 Alpha virt. eigenvalues --    3.98435   3.98884   3.99225   4.00103   4.00503
 Alpha virt. eigenvalues --    4.00943   4.01429   4.01857   4.02699   4.03140
 Alpha virt. eigenvalues --    4.04039   4.04288   4.04363   4.05395   4.05874
 Alpha virt. eigenvalues --    4.06598   4.06980   4.07520   4.08365   4.09030
 Alpha virt. eigenvalues --    4.09222   4.09380   4.09926   4.10316   4.11066
 Alpha virt. eigenvalues --    4.11794   4.12110   4.12620   4.13006   4.13179
 Alpha virt. eigenvalues --    4.13791   4.14402   4.14581   4.15178   4.15555
 Alpha virt. eigenvalues --    4.16327   4.16545   4.16728   4.16917   4.17138
 Alpha virt. eigenvalues --    4.17938   4.18258   4.18572   4.18829   4.19751
 Alpha virt. eigenvalues --    4.20345   4.20909   4.21060   4.21695   4.22145
 Alpha virt. eigenvalues --    4.22650   4.22690   4.23552   4.23824   4.24176
 Alpha virt. eigenvalues --    4.24796   4.25057   4.25465   4.25919   4.26351
 Alpha virt. eigenvalues --    4.26937   4.27213   4.27667   4.27979   4.28972
 Alpha virt. eigenvalues --    4.29232   4.29587   4.30105   4.30300   4.30792
 Alpha virt. eigenvalues --    4.31253   4.32158   4.32463   4.32984   4.33147
 Alpha virt. eigenvalues --    4.34322   4.34535   4.35745   4.36062   4.36838
 Alpha virt. eigenvalues --    4.36937   4.37408   4.37720   4.38089   4.38847
 Alpha virt. eigenvalues --    4.39511   4.40079   4.40500   4.40825   4.41072
 Alpha virt. eigenvalues --    4.41944   4.42585   4.42933   4.43646   4.44121
 Alpha virt. eigenvalues --    4.44681   4.45351   4.46056   4.46849   4.47371
 Alpha virt. eigenvalues --    4.48241   4.48284   4.48615   4.49494   4.50386
 Alpha virt. eigenvalues --    4.50663   4.50875   4.51166   4.51750   4.52763
 Alpha virt. eigenvalues --    4.53957   4.54198   4.54366   4.55068   4.55557
 Alpha virt. eigenvalues --    4.56496   4.56887   4.57758   4.58466   4.58645
 Alpha virt. eigenvalues --    4.59510   4.59926   4.60785   4.61262   4.61761
 Alpha virt. eigenvalues --    4.62895   4.64228   4.64461   4.64891   4.65919
 Alpha virt. eigenvalues --    4.66444   4.66598   4.67214   4.67779   4.68872
 Alpha virt. eigenvalues --    4.69903   4.70094   4.71110   4.71224   4.72636
 Alpha virt. eigenvalues --    4.73228   4.73535   4.74593   4.74974   4.75498
 Alpha virt. eigenvalues --    4.75745   4.76372   4.76488   4.77417   4.77760
 Alpha virt. eigenvalues --    4.78448   4.78819   4.79710   4.79816   4.80323
 Alpha virt. eigenvalues --    4.80906   4.81402   4.81906   4.82834   4.83295
 Alpha virt. eigenvalues --    4.84091   4.84261   4.85264   4.85815   4.86209
 Alpha virt. eigenvalues --    4.87034   4.87509   4.88688   4.89363   4.89638
 Alpha virt. eigenvalues --    4.90169   4.91082   4.91445   4.92184   4.92489
 Alpha virt. eigenvalues --    4.93681   4.94044   4.94817   4.95642   4.96463
 Alpha virt. eigenvalues --    4.96948   4.97626   4.98104   4.98686   4.99208
 Alpha virt. eigenvalues --    4.99461   5.01262   5.02358   5.03087   5.03665
 Alpha virt. eigenvalues --    5.04328   5.05296   5.07512   5.08096   5.08938
 Alpha virt. eigenvalues --    5.10177   5.11042   5.11872   5.12798   5.14504
 Alpha virt. eigenvalues --    5.15470   5.16090   5.16538   5.17130   5.18722
 Alpha virt. eigenvalues --    5.18950   5.19320   5.19985   5.20496   5.21034
 Alpha virt. eigenvalues --    5.21783   5.22590   5.22797   5.23265   5.24435
 Alpha virt. eigenvalues --    5.25473   5.26090   5.26242   5.27239   5.27576
 Alpha virt. eigenvalues --    5.28145   5.30073   5.30279   5.32031   5.33245
 Alpha virt. eigenvalues --    5.33833   5.34550   5.37569   5.38416   5.39059
 Alpha virt. eigenvalues --    5.39548   5.40429   5.40912   5.42312   5.42943
 Alpha virt. eigenvalues --    5.43869   5.44515   5.45422   5.47468   5.49452
 Alpha virt. eigenvalues --    5.50059   5.50184   5.50677   5.51304   5.51921
 Alpha virt. eigenvalues --    5.53157   5.55264   5.56565   5.57840   5.58234
 Alpha virt. eigenvalues --    5.59032   5.59690   5.61427   5.63799   5.64111
 Alpha virt. eigenvalues --    5.64584   5.66406   5.67887   5.70533   5.72488
 Alpha virt. eigenvalues --    5.73791   5.75228   5.76631   5.78750   5.79481
 Alpha virt. eigenvalues --    5.80126   5.87725   5.88079   5.88749   5.89718
 Alpha virt. eigenvalues --    5.91005   5.91399   5.92858   5.96923   5.97590
 Alpha virt. eigenvalues --    5.99618   6.01984   6.04623   6.05548   6.06140
 Alpha virt. eigenvalues --    6.06292   6.08505   6.10556   6.13013   6.15098
 Alpha virt. eigenvalues --    6.15400   6.16985   6.20511   6.22856   6.25034
 Alpha virt. eigenvalues --    6.26050   6.29866   6.30946   6.32607   6.33958
 Alpha virt. eigenvalues --    6.42312   6.43100   6.45541   6.46728   6.51788
 Alpha virt. eigenvalues --    6.53275   6.64266   6.64614   6.74346   6.74399
 Alpha virt. eigenvalues --    6.81072   6.81920   6.92146   6.92580   7.00160
 Alpha virt. eigenvalues --    7.01714   7.11661   7.12235   7.14401   7.14484
 Alpha virt. eigenvalues --    7.28602   7.31496   9.16787   9.48607   9.63020
 Alpha virt. eigenvalues --   20.20347  22.35302  22.40265  22.48356  22.51433
 Alpha virt. eigenvalues --   22.52171  22.52930  22.53221  22.56249  22.59503
 Alpha virt. eigenvalues --   22.61223  22.61975  22.62159  22.63162  22.71276
 Alpha virt. eigenvalues --   22.77772  22.80859  22.82729  22.83722  22.86569
 Alpha virt. eigenvalues --   22.92462  22.92959  22.96531  23.02426  23.04384
 Alpha virt. eigenvalues --   23.06514  23.08124  23.12023  23.14100  23.19798
 Alpha virt. eigenvalues --   23.24252  23.27123  23.30775  23.32420  23.43557
 Alpha virt. eigenvalues --   23.46518  23.53653  23.56205  23.60764  23.64822
 Alpha virt. eigenvalues --   23.71876  23.77991  32.46949  32.79515  32.91804
 Alpha virt. eigenvalues --   32.98584  33.01346  33.11796  43.92142  43.93908
 Alpha virt. eigenvalues --   43.95346  43.97766
  Beta  occ. eigenvalues -- -256.43743 -89.08712 -30.20223 -26.03216 -26.03113
  Beta  occ. eigenvalues --  -26.02345 -19.27285 -19.26682 -19.19264 -19.19031
  Beta  occ. eigenvalues --  -14.46884 -14.43598 -14.42649 -14.41963 -14.41755
  Beta  occ. eigenvalues --  -14.41711 -10.36493 -10.36450 -10.31080 -10.30561
  Beta  occ. eigenvalues --  -10.29493 -10.29328 -10.28856 -10.28811 -10.28702
  Beta  occ. eigenvalues --  -10.28521 -10.28375 -10.28265 -10.28114 -10.26991
  Beta  occ. eigenvalues --  -10.26745 -10.25934 -10.25570 -10.25564 -10.25445
  Beta  occ. eigenvalues --  -10.25398 -10.25392 -10.25186 -10.24972 -10.24853
  Beta  occ. eigenvalues --  -10.24804 -10.24485 -10.24313 -10.24288 -10.24186
  Beta  occ. eigenvalues --  -10.23798 -10.23498 -10.22968 -10.22831 -10.22815
  Beta  occ. eigenvalues --  -10.22770 -10.22356 -10.21257 -10.21155 -10.21012
  Beta  occ. eigenvalues --  -10.20316 -10.19848  -8.06323  -6.00130  -5.99669
  Beta  occ. eigenvalues --   -5.99066  -3.52612  -2.27988  -2.27926  -2.27236
  Beta  occ. eigenvalues --   -1.18116  -1.17275  -1.09449  -1.03895  -1.03816
  Beta  occ. eigenvalues --   -1.00960  -0.99879  -0.99375  -0.98251  -0.94037
  Beta  occ. eigenvalues --   -0.89373  -0.87550  -0.87351  -0.87057  -0.86551
  Beta  occ. eigenvalues --   -0.85955  -0.84363  -0.83713  -0.83314  -0.82360
  Beta  occ. eigenvalues --   -0.81818  -0.81261  -0.80512  -0.80114  -0.78353
  Beta  occ. eigenvalues --   -0.77384  -0.76003  -0.74555  -0.74322  -0.73814
  Beta  occ. eigenvalues --   -0.72409  -0.72011  -0.71691  -0.71106  -0.68670
  Beta  occ. eigenvalues --   -0.68567  -0.67298  -0.66603  -0.66294  -0.65595
  Beta  occ. eigenvalues --   -0.65415  -0.64675  -0.63075  -0.62068  -0.60855
  Beta  occ. eigenvalues --   -0.59201  -0.58834  -0.57664  -0.57533  -0.56626
  Beta  occ. eigenvalues --   -0.55429  -0.55204  -0.54693  -0.54160  -0.53013
  Beta  occ. eigenvalues --   -0.52782  -0.52634  -0.52420  -0.51908  -0.51795
  Beta  occ. eigenvalues --   -0.51588  -0.51490  -0.51088  -0.50820  -0.50653
  Beta  occ. eigenvalues --   -0.50463  -0.50361  -0.50201  -0.49736  -0.49295
  Beta  occ. eigenvalues --   -0.48702  -0.48175  -0.47911  -0.47833  -0.47237
  Beta  occ. eigenvalues --   -0.47010  -0.46452  -0.46373  -0.46081  -0.45771
  Beta  occ. eigenvalues --   -0.45216  -0.44954  -0.44889  -0.44668  -0.44290
  Beta  occ. eigenvalues --   -0.44246  -0.44071  -0.43853  -0.43658  -0.43230
  Beta  occ. eigenvalues --   -0.43038  -0.42795  -0.42468  -0.42265  -0.42150
  Beta  occ. eigenvalues --   -0.41863  -0.41733  -0.41556  -0.41413  -0.40798
  Beta  occ. eigenvalues --   -0.40648  -0.40550  -0.40264  -0.39925  -0.39779
  Beta  occ. eigenvalues --   -0.39600  -0.39401  -0.39069  -0.38906  -0.38483
  Beta  occ. eigenvalues --   -0.37617  -0.37397  -0.36920  -0.36761  -0.36550
  Beta  occ. eigenvalues --   -0.36109  -0.35852  -0.35681  -0.35491  -0.34240
  Beta  occ. eigenvalues --   -0.34011  -0.33913  -0.33809  -0.33378  -0.32858
  Beta  occ. eigenvalues --   -0.31149  -0.30757  -0.29999  -0.29404  -0.29218
  Beta  occ. eigenvalues --   -0.28703  -0.28057  -0.27153  -0.26679  -0.26489
  Beta  occ. eigenvalues --   -0.25336  -0.23728  -0.23217  -0.22566  -0.21776
  Beta virt. eigenvalues --   -0.12659  -0.10566  -0.08978  -0.08190  -0.05976
  Beta virt. eigenvalues --   -0.04268  -0.03637  -0.02151  -0.01643  -0.00986
  Beta virt. eigenvalues --   -0.00049   0.00687   0.00830   0.01884   0.02075
  Beta virt. eigenvalues --    0.02312   0.02877   0.03187   0.03279   0.03688
  Beta virt. eigenvalues --    0.03745   0.04262   0.04365   0.04642   0.05351
  Beta virt. eigenvalues --    0.05496   0.05931   0.06088   0.06216   0.06555
  Beta virt. eigenvalues --    0.06731   0.06994   0.07266   0.07524   0.07790
  Beta virt. eigenvalues --    0.08014   0.08137   0.08622   0.08985   0.09298
  Beta virt. eigenvalues --    0.09425   0.09828   0.09928   0.10254   0.10423
  Beta virt. eigenvalues --    0.10615   0.10720   0.10941   0.11112   0.11449
  Beta virt. eigenvalues --    0.11651   0.11698   0.11896   0.12070   0.12291
  Beta virt. eigenvalues --    0.12536   0.12703   0.12758   0.12990   0.13362
  Beta virt. eigenvalues --    0.13406   0.13546   0.13579   0.13775   0.14054
  Beta virt. eigenvalues --    0.14250   0.14442   0.14700   0.14934   0.15007
  Beta virt. eigenvalues --    0.15103   0.15387   0.15588   0.15999   0.16077
  Beta virt. eigenvalues --    0.16359   0.16698   0.17224   0.17321   0.17547
  Beta virt. eigenvalues --    0.17747   0.17851   0.17948   0.18063   0.18542
  Beta virt. eigenvalues --    0.18632   0.18883   0.19027   0.19033   0.19244
  Beta virt. eigenvalues --    0.19441   0.19601   0.19699   0.19853   0.20082
  Beta virt. eigenvalues --    0.20475   0.20610   0.20881   0.21022   0.21066
  Beta virt. eigenvalues --    0.21288   0.21694   0.21811   0.21931   0.22154
  Beta virt. eigenvalues --    0.22428   0.22565   0.22717   0.22817   0.23215
  Beta virt. eigenvalues --    0.23278   0.23506   0.23688   0.23974   0.24089
  Beta virt. eigenvalues --    0.24173   0.24301   0.24465   0.24829   0.24917
  Beta virt. eigenvalues --    0.25147   0.25339   0.25498   0.25622   0.25804
  Beta virt. eigenvalues --    0.25969   0.26155   0.26407   0.26734   0.26811
  Beta virt. eigenvalues --    0.26923   0.27138   0.27516   0.27818   0.28266
  Beta virt. eigenvalues --    0.28314   0.28524   0.28855   0.29071   0.29315
  Beta virt. eigenvalues --    0.29371   0.29820   0.30010   0.30160   0.30448
  Beta virt. eigenvalues --    0.30839   0.30973   0.31242   0.31488   0.31756
  Beta virt. eigenvalues --    0.31851   0.32293   0.32548   0.32601   0.32891
  Beta virt. eigenvalues --    0.33054   0.33394   0.33477   0.33883   0.34009
  Beta virt. eigenvalues --    0.34298   0.34568   0.34616   0.35056   0.35316
  Beta virt. eigenvalues --    0.35557   0.35677   0.35890   0.35916   0.36235
  Beta virt. eigenvalues --    0.36398   0.36503   0.36760   0.36955   0.37208
  Beta virt. eigenvalues --    0.37269   0.37492   0.37780   0.37870   0.38168
  Beta virt. eigenvalues --    0.38391   0.38599   0.38898   0.39018   0.39208
  Beta virt. eigenvalues --    0.39436   0.39856   0.39993   0.40062   0.40271
  Beta virt. eigenvalues --    0.40440   0.40673   0.40779   0.40925   0.41039
  Beta virt. eigenvalues --    0.41099   0.41259   0.41582   0.41637   0.41804
  Beta virt. eigenvalues --    0.42075   0.42269   0.42355   0.42478   0.42716
  Beta virt. eigenvalues --    0.43089   0.43095   0.43325   0.43548   0.43674
  Beta virt. eigenvalues --    0.43889   0.43973   0.44128   0.44290   0.44336
  Beta virt. eigenvalues --    0.44669   0.44929   0.45108   0.45169   0.45343
  Beta virt. eigenvalues --    0.45413   0.45584   0.45807   0.46025   0.46119
  Beta virt. eigenvalues --    0.46150   0.46344   0.46610   0.46813   0.47108
  Beta virt. eigenvalues --    0.47124   0.47235   0.47309   0.47614   0.47678
  Beta virt. eigenvalues --    0.47929   0.48071   0.48375   0.48563   0.48729
  Beta virt. eigenvalues --    0.48825   0.48930   0.49166   0.49203   0.49336
  Beta virt. eigenvalues --    0.49477   0.49787   0.49842   0.50193   0.50388
  Beta virt. eigenvalues --    0.50583   0.50744   0.50905   0.51073   0.51285
  Beta virt. eigenvalues --    0.51412   0.51515   0.51686   0.51814   0.51856
  Beta virt. eigenvalues --    0.52116   0.52253   0.52595   0.52754   0.52880
  Beta virt. eigenvalues --    0.52938   0.53232   0.53399   0.53584   0.53871
[...]
  Beta virt. eigenvalues --    3.35141   3.35368   3.35565   3.35895   3.36175
  Beta virt. eigenvalues --    3.36208   3.36436   3.36663   3.36731   3.37102
  Beta virt. eigenvalues --    3.37579   3.37644   3.37821   3.38129   3.38490
  Beta virt. eigenvalues --    3.38676   3.38902   3.39175   3.39729   3.39854
  Beta virt. eigenvalues --    3.40212   3.40277   3.40419   3.40571   3.41121
  Beta virt. eigenvalues --    3.41191   3.41605   3.41759   3.41975   3.42293
  Beta virt. eigenvalues --    3.42469   3.42713   3.42810   3.43142   3.43234
  Beta virt. eigenvalues --    3.43685   3.43862   3.44349   3.44461   3.44782
  Beta virt. eigenvalues --    3.45049   3.45569   3.45788   3.46032   3.46326
  Beta virt. eigenvalues --    3.46926   3.47068   3.47145   3.47358   3.47664
  Beta virt. eigenvalues --    3.47890   3.48512   3.48612   3.48874   3.49120
  Beta virt. eigenvalues --    3.49458   3.49562   3.49757   3.50213   3.50560
  Beta virt. eigenvalues --    3.51033   3.51579   3.51752   3.52320   3.52742
  Beta virt. eigenvalues --    3.53072   3.53229   3.53404   3.53712   3.54069
  Beta virt. eigenvalues --    3.54434   3.54713   3.55004   3.55330   3.55654
  Beta virt. eigenvalues --    3.55892   3.56032   3.56846   3.57331   3.57523
  Beta virt. eigenvalues --    3.57908   3.58230   3.58277   3.58829   3.59245
  Beta virt. eigenvalues --    3.59322   3.59676   3.60184   3.60572   3.60911
  Beta virt. eigenvalues --    3.61106   3.61338   3.61810   3.61911   3.62410
  Beta virt. eigenvalues --    3.62559   3.63508   3.63900   3.63920   3.64205
  Beta virt. eigenvalues --    3.64338   3.64958   3.65322   3.65416   3.65723
  Beta virt. eigenvalues --    3.65926   3.66390   3.66626   3.66824   3.67178
  Beta virt. eigenvalues --    3.67569   3.68110   3.68613   3.68996   3.69119
  Beta virt. eigenvalues --    3.69409   3.69691   3.70253   3.70443   3.71112
  Beta virt. eigenvalues --    3.71377   3.71597   3.72329   3.72633   3.72922
  Beta virt. eigenvalues --    3.73233   3.73812   3.74182   3.74567   3.74886
  Beta virt. eigenvalues --    3.75678   3.75908   3.76402   3.77073   3.77480
  Beta virt. eigenvalues --    3.77919   3.78139   3.78953   3.79281   3.79477
  Beta virt. eigenvalues --    3.79641   3.80380   3.80464   3.80831   3.81158
  Beta virt. eigenvalues --    3.81653   3.82411   3.82684   3.83159   3.83504
  Beta virt. eigenvalues --    3.84226   3.84544   3.84725   3.84930   3.85449
  Beta virt. eigenvalues --    3.86037   3.86303   3.86428   3.87113   3.87267
  Beta virt. eigenvalues --    3.87742   3.87979   3.88331   3.88840   3.89244
  Beta virt. eigenvalues --    3.89707   3.90139   3.90340   3.90685   3.91515
  Beta virt. eigenvalues --    3.91842   3.92231   3.92428   3.92669   3.92952
  Beta virt. eigenvalues --    3.93791   3.94356   3.95172   3.95410   3.95973
  Beta virt. eigenvalues --    3.96429   3.96951   3.97071   3.97440   3.97895
  Beta virt. eigenvalues --    3.98368   3.98490   3.98970   3.99459   4.00288
  Beta virt. eigenvalues --    4.00729   4.01276   4.02239   4.02299   4.02853
  Beta virt. eigenvalues --    4.03381   4.04213   4.04526   4.04804   4.05626
  Beta virt. eigenvalues --    4.06243   4.07427   4.08349   4.08620   4.09205
  Beta virt. eigenvalues --    4.09385   4.09482   4.10254   4.10732   4.10895
  Beta virt. eigenvalues --    4.11373   4.12248   4.12820   4.13051   4.13277
  Beta virt. eigenvalues --    4.13509   4.14300   4.14610   4.14941   4.15437
  Beta virt. eigenvalues --    4.15710   4.16424   4.16739   4.17039   4.17121
  Beta virt. eigenvalues --    4.17270   4.18033   4.18427   4.18731   4.19055
  Beta virt. eigenvalues --    4.19796   4.20405   4.21105   4.21272   4.21799
  Beta virt. eigenvalues --    4.22252   4.22809   4.23075   4.23770   4.23941
  Beta virt. eigenvalues --    4.24261   4.24840   4.25277   4.26015   4.26364
  Beta virt. eigenvalues --    4.26620   4.27160   4.27293   4.28032   4.28758
  Beta virt. eigenvalues --    4.29221   4.29543   4.30144   4.30485   4.30610
  Beta virt. eigenvalues --    4.31010   4.31595   4.32480   4.32805   4.33123
  Beta virt. eigenvalues --    4.33450   4.34737   4.35221   4.35832   4.36141
  Beta virt. eigenvalues --    4.36914   4.36977   4.37673   4.38004   4.38192
  Beta virt. eigenvalues --    4.38905   4.39727   4.40176   4.40660   4.40926
  Beta virt. eigenvalues --    4.41092   4.42219   4.42876   4.43088   4.43789
  Beta virt. eigenvalues --    4.44213   4.44868   4.45494   4.46092   4.46904
  Beta virt. eigenvalues --    4.47469   4.48315   4.48542   4.48727   4.49679
  Beta virt. eigenvalues --    4.50492   4.50872   4.51056   4.51261   4.51783
  Beta virt. eigenvalues --    4.52790   4.53990   4.54214   4.54396   4.55086
  Beta virt. eigenvalues --    4.55587   4.56543   4.57019   4.57825   4.58498
  Beta virt. eigenvalues --    4.58689   4.59563   4.59978   4.60852   4.61282
  Beta virt. eigenvalues --    4.61775   4.62918   4.64299   4.64484   4.64995
  Beta virt. eigenvalues --    4.65944   4.66484   4.66644   4.67256   4.67815
  Beta virt. eigenvalues --    4.68892   4.69937   4.70105   4.71146   4.71225
  Beta virt. eigenvalues --    4.72639   4.73227   4.73568   4.74600   4.74996
  Beta virt. eigenvalues --    4.75501   4.75752   4.76392   4.76500   4.77433
  Beta virt. eigenvalues --    4.77773   4.78489   4.78829   4.79714   4.79838
  Beta virt. eigenvalues --    4.80326   4.80915   4.81430   4.81924   4.82856
  Beta virt. eigenvalues --    4.83349   4.84116   4.84265   4.85291   4.85863
  Beta virt. eigenvalues --    4.86273   4.87055   4.87576   4.88715   4.89385
  Beta virt. eigenvalues --    4.89643   4.90158   4.91093   4.91485   4.92184
  Beta virt. eigenvalues --    4.92479   4.93691   4.94052   4.94822   4.95682
  Beta virt. eigenvalues --    4.96485   4.96978   4.97660   4.98123   4.98689
  Beta virt. eigenvalues --    4.99242   4.99469   5.01312   5.02389   5.03091
  Beta virt. eigenvalues --    5.03681   5.04330   5.05310   5.07478   5.08106
  Beta virt. eigenvalues --    5.08947   5.10199   5.11066   5.11876   5.12807
  Beta virt. eigenvalues --    5.14515   5.15485   5.16090   5.16536   5.17131
  Beta virt. eigenvalues --    5.18706   5.18945   5.19324   5.19959   5.20498
  Beta virt. eigenvalues --    5.21044   5.21785   5.22590   5.22796   5.23251
  Beta virt. eigenvalues --    5.24444   5.25471   5.26077   5.26174   5.27238
  Beta virt. eigenvalues --    5.27550   5.28091   5.30068   5.30248   5.32002
  Beta virt. eigenvalues --    5.33253   5.33792   5.34524   5.37533   5.38391
  Beta virt. eigenvalues --    5.39025   5.39524   5.40382   5.40901   5.42306
  Beta virt. eigenvalues --    5.42885   5.43897   5.44486   5.45382   5.47453
  Beta virt. eigenvalues --    5.49463   5.50049   5.50173   5.50682   5.51303
  Beta virt. eigenvalues --    5.51919   5.53139   5.55269   5.56550   5.57842
  Beta virt. eigenvalues --    5.58225   5.59031   5.59663   5.61441   5.63799
  Beta virt. eigenvalues --    5.64110   5.64543   5.66362   5.67871   5.70510
  Beta virt. eigenvalues --    5.72470   5.73765   5.75200   5.76630   5.78748
  Beta virt. eigenvalues --    5.79415   5.80100   5.87760   5.88054   5.88704
  Beta virt. eigenvalues --    5.89650   5.90972   5.91373   5.92787   5.96870
  Beta virt. eigenvalues --    5.97557   5.99596   6.01938   6.04571   6.05546
  Beta virt. eigenvalues --    6.06197   6.06304   6.08451   6.10535   6.12920
  Beta virt. eigenvalues --    6.15097   6.15398   6.16930   6.20446   6.22806
  Beta virt. eigenvalues --    6.24956   6.26000   6.29866   6.30946   6.32606
  Beta virt. eigenvalues --    6.33958   6.42312   6.43100   6.45541   6.46728
  Beta virt. eigenvalues --    6.51788   6.53275   6.64266   6.64614   6.74346
  Beta virt. eigenvalues --    6.74399   6.81072   6.81920   6.92146   6.92580
  Beta virt. eigenvalues --    7.00160   7.01714   7.11661   7.12235   7.14401
  Beta virt. eigenvalues --    7.14484   7.28601   7.31496   9.16781   9.48554
  Beta virt. eigenvalues --    9.62998  20.20321  22.35328  22.40273  22.48351
  Beta virt. eigenvalues --   22.51432  22.52170  22.52930  22.53220  22.56249
  Beta virt. eigenvalues --   22.59503  22.61223  22.61975  22.62159  22.63162
  Beta virt. eigenvalues --   22.71276  22.77774  22.80864  22.82735  22.83723
  Beta virt. eigenvalues --   22.86570  22.92460  22.92960  22.96531  23.02429
  Beta virt. eigenvalues --   23.04383  23.06517  23.08125  23.12028  23.14105
  Beta virt. eigenvalues --   23.19801  23.24259  23.27125  23.30775  23.32425
  Beta virt. eigenvalues --   23.43559  23.46522  23.53654  23.56206  23.60769
  Beta virt. eigenvalues --   23.64828  23.71876  23.77995  32.46955  32.79442
  Beta virt. eigenvalues --   32.91752  32.98543  33.01284  33.11738  43.92142
  Beta virt. eigenvalues --   43.93908  43.95346  43.97766
          Condensed to atoms (all electrons):
          Atomic-Atomic Spin Densities.
 Mulliken charges and spin densities:
               1          2
     1  C   -0.385974  -0.000363
     2  C    0.117134  -0.000739
     3  N   -0.183933   0.003421
     4  C   -0.202899   0.002029
     5  C    0.016933   0.011233
     6  N    0.041845  -0.041421
     7  C   -0.340004   0.000469
     8  C   -0.138083  -0.005133
     9  S    0.007875  -0.021785
    10  C   -0.716684   0.021857
    11  Fe  -0.418089   1.106717
    12  C   -0.551911  -0.007559
    13  C   -0.493869  -0.009742
    14  C   -0.486916   0.000348
    15  C   -0.506572  -0.004190
    16  N    0.078801  -0.038761
    17  C    0.255444   0.011352
    18  C   -0.051799   0.001157
    19  C   -0.119607   0.016041
    20  C    0.251029   0.004499
    21  C   -0.745962   0.004793
    22  C   -0.285742  -0.000870
    23  C   -0.154201   0.000045
    24  C    0.277041  -0.000007
    25  O   -0.428277   0.000027
    26  O   -0.340147  -0.000002
    27  N   -0.005132  -0.026522
    28  C    0.176696   0.003543
    29  C   -0.049551   0.007749
    30  C    0.078701  -0.003801
    31  C    0.164053   0.001354
    32  C   -0.430772  -0.000419
    33  C   -0.243417  -0.000244
    34  C   -0.376403  -0.000086
    35  N    0.033784  -0.033929
    36  C    0.187305   0.002611
    37  C   -0.073766   0.001456
    38  C   -0.024314   0.011759
    39  C    0.259073   0.002543
    40  C   -0.397218  -0.000898
    41  C   -0.222126  -0.000726
    42  C   -0.376181   0.000477
    43  N    0.021180  -0.035121
    44  C    0.229683   0.000577
    45  C   -0.051048   0.013074
    46  C    0.048850  -0.006678
    47  C    0.252349   0.011589
    48  C   -0.414263  -0.000764
    49  C   -0.350707  -0.000164
    50  C   -0.096430  -0.000213
    51  C    0.284273  -0.000042
    52  O   -0.361798  -0.000005
    53  O   -0.411889  -0.000041
    54  H    0.161769   0.000072
    55  H    0.162601   0.000074
    56  H    0.150371  -0.000069
    57  H    0.177549  -0.000202
    58  H    0.203491  -0.000628
    59  H    0.158123  -0.000147
    60  H    0.090769  -0.000060
    61  H    0.133370   0.000039
    62  H    0.164218  -0.001494
    63  H    0.141282   0.000992
    64  H    0.295233  -0.001218
    65  H    0.281142   0.001622
    66  H    0.250005  -0.001804
    67  H    0.175106   0.000193
    68  H    0.154090   0.000200
    69  H    0.160430  -0.000056
    70  H    0.163570   0.000086
    71  H    0.293963   0.000320
    72  H    0.267885   0.000183
    73  H    0.284404  -0.000150
    74  H    0.152692  -0.000132
    75  H    0.129859   0.000188
    76  H    0.127980   0.000016
    77  H    0.127153   0.000006
    78  H    0.158761   0.000192
    79  H    0.162917   0.000380
    80  H    0.146043   0.000010
    81  H    0.117470  -0.000077
    82  H    0.121332  -0.000039
    83  H    0.134936  -0.000012
    84  H    0.159084   0.000185
    85  H    0.153655  -0.000100
    86  H    0.149009   0.000154
    87  H    0.119435   0.000026
    88  H    0.125086  -0.000024
    89  H    0.134310   0.000135
    90  H    0.150165   0.000066
    91  H    0.161783   0.000694
    92  H    0.155504   0.000260
    93  H    0.151252  -0.000147
    94  H    0.127766  -0.000064
    95  H    0.120604  -0.000000
    96  H    0.115881   0.000017
    97  H    0.284688  -0.000450
    98  H    0.386238   0.000004
    99  H    0.390336   0.000001
   100  H    0.123978  -0.000026
   101  H    0.136817   0.000452
   102  H    0.130141  -0.000153
   103  H    0.129391  -0.000009
 Sum of Mulliken charges =   1.00000   1.00000
 Mulliken charges and spin densities with hydrogens summed into heavy atoms:
               1          2
     1  C    0.088766  -0.000286
     2  C    0.117134  -0.000739
     3  N    0.100755   0.002971
     4  C   -0.025351   0.001827
     5  C    0.220423   0.010606
     6  N    0.041845  -0.041421
     7  C    0.042259   0.000301
     8  C    0.167416  -0.005636
     9  S    0.007875  -0.021785
    10  C    0.109697   0.020458
    11  Fe  -0.418089   1.106717
    12  C   -0.376804  -0.007367
    13  C   -0.339779  -0.009542
    14  C   -0.326486   0.000292
    15  C   -0.343002  -0.004104
    16  N    0.078801  -0.038761
    17  C    0.255444   0.011352
    18  C   -0.051799   0.001157
    19  C   -0.119607   0.016041
    20  C    0.251029   0.004499
    21  C    0.100290   0.005147
    22  C   -0.003191  -0.000813
    23  C    0.100931   0.000067
    24  C    0.277041  -0.000007
    25  O   -0.428277   0.000027
    26  O    0.046091   0.000003
    27  N   -0.005132  -0.026522
    28  C    0.176696   0.003543
    29  C   -0.049551   0.007749
    30  C    0.078701  -0.003801
    31  C    0.164053   0.001354
    32  C    0.036949   0.000163
    33  C    0.004194  -0.000474
    34  C    0.009255  -0.000146
    35  N    0.033784  -0.033929
    36  C    0.187305   0.002611
    37  C   -0.073766   0.001456
    38  C   -0.024314   0.011759
    39  C    0.259073   0.002543
    40  C    0.064531  -0.000659
    41  C    0.034126  -0.000248
    42  C    0.007193   0.000561
    43  N    0.021180  -0.035121
    44  C    0.229683   0.000577
    45  C   -0.051048   0.013074
    46  C    0.048850  -0.006678
    47  C    0.252349   0.011589
    48  C    0.053190   0.000256
    49  C   -0.071689  -0.000374
    50  C    0.140055  -0.000196
    51  C    0.284273  -0.000042
    52  O    0.028537  -0.000005
    53  O   -0.411889  -0.000041
 Electronic spatial extent (au):  <R**2>=          34130.3655
 Charge=              1.0000 electrons
 Dipole moment (field-independent basis, Debye):
    X=             10.7948    Y=             -3.9274    Z=              6.9639  Tot=             13.4331
 Quadrupole moment (field-independent basis, Debye-Ang):
   XX=           -295.2361   YY=           -264.5973   ZZ=           -272.3487
   XY=             15.8606   XZ=             -4.3366   YZ=            -19.7161
 Traceless Quadrupole moment (field-independent basis, Debye-Ang):
   XX=            -17.8421   YY=             12.7968   ZZ=              5.0453
   XY=             15.8606   XZ=             -4.3366   YZ=            -19.7161
 Octapole moment (field-independent basis, Debye-Ang**2):
  XXX=            473.3071  YYY=           -178.3513  ZZZ=            227.6663  XYY=            122.3148
  XXY=           -248.4272  XXZ=            -20.4357  XZZ=            -52.5747  YZZ=             23.8666
  YYZ=            121.0692  XYZ=             96.6926
 Hexadecapole moment (field-independent basis, Debye-Ang**3):
 XXXX=         -24500.5167 YYYY=         -13647.9841 ZZZZ=          -5266.7611 XXXY=           1928.3816
 XXXZ=            -53.2994 YYYX=            924.8595 YYYZ=           -172.5211 ZZZX=            345.2774
 ZZZY=           -654.6284 XXYY=          -6161.5718 XXZZ=          -4276.0513 YYZZ=          -3450.6534
 XXYZ=           -391.0092 YYXZ=           -580.0890 ZZXY=           -135.7564
 N-N= 9.024452282190D+03 E-N=-2.713261828616D+04  KE= 3.869341169185D+03
 1\1\GINC-NODE535\SP\UPBE1PBE\def2TZVP\C41H50Fe1N6O4S1(1+,2)\KLEICH\15-
 Sep-2022\0\\# PBE1PBE/def2TZVP empiricaldispersion=GD3BJ int=(grid=ult
 rafine) geom=check guess=read scrf=(smd,solvent=Chloroform)\\1f1f_III_
 D_solv\\1,2\C,0,17.746,-1.573,14.073\C,0,19.193,-1.82,13.766\N,0,19.73
 9,-3.084,13.674\C,0,20.216,-0.957,13.561\C,0,21.032,-2.989,13.429\N,0,
 21.348,-1.709,13.356\C,0,26.954,-1.513,11.283\C,0,26.872,-0.44,12.354\
 S,0,25.223,0.143,12.791\C,0,25.647,1.516,13.893\Fe,0,23.155,-0.817,13.
 27\C,0,24.82,-3.613,14.279\C,0,22.887,0.274,16.485\C,0,21.839,2.193,12
 .107\C,0,22.984,-2.09,10.08\N,0,23.692,-1.546,15.023\C,0,24.377,-2.734
 ,15.277\C,0,24.705,-2.89,16.725\C,0,24.279,-1.703,17.32\C,0,23.578,-0.
 926,16.264\C,0,24.488,-1.268,18.793\C,0,25.234,-4.188,17.406\C,0,24.27
 5,-5.336,17.098\C,0,24.692,-6.674,17.694\O,0,25.782,-7.178,17.357\O,0,
 23.916,-7.237,18.494\N,0,22.421,0.836,14.114\C,0,22.338,1.097,15.49\C,
 0,21.784,2.43,15.73\C,0,21.573,3.003,14.497\C,0,21.95,2.006,13.491\C,0
 ,21.418,3.053,17.081\C,0,21.102,4.304,14.272\C,0,21.977,5.385,14.378\N
 ,0,22.588,-0.09,11.473\C,0,22.143,1.209,11.155\C,0,21.74,1.292,9.736\C
 ,0,21.822,-0.001,9.23\C,0,22.445,-0.814,10.283\C,0,21.434,2.543,8.906\
 C,0,21.411,-0.436,7.944\C,0,22.123,-0.078,6.828\N,0,23.773,-2.479,12.3
 8\C,0,23.641,-2.843,11.034\C,0,24.376,-4.055,10.759\C,0,24.914,-4.456,
 11.946\C,0,24.528,-3.497,12.936\C,0,24.611,-4.72,9.402\C,0,25.836,-5.6
 36,12.228\C,0,27.212,-5.383,11.637\C,0,28.251,-6.376,12.122\O,0,28.671
 ,-6.286,13.304\O,0,28.641,-7.254,11.32\H,0,17.66685698,-0.88743069,14.
 89069866\H,0,17.26446035,-1.15843219,13.21209751\H,0,17.27427527,-2.49
 690725,14.33524258\H,0,20.15458612,0.11123417,13.55897442\H,0,21.70887
 138,-3.80908731,13.30982811\H,0,27.95092075,-1.89935119,11.24078886\H,
 0,26.27424493,-2.30497904,11.51880126\H,0,26.69462441,-1.09087413,10.3
 3461503\H,0,27.36952853,0.41091235,11.93769059\H,0,27.25170312,-0.9001
 9582,13.24222596\H,0,25.07237296,2.34654736,14.24640464\H,0,25.5240112
 4,2.05297113,12.97570192\H,0,24.94483245,0.99831047,14.51256298\H,0,25
 .43148164,-4.43702489,14.58227081\H,0,22.76806888,0.58942604,17.500510
 61\H,0,21.50148805,3.14524249,11.75455154\H,0,22.87834155,-2.51764769,
 9.1048827\H,0,23.90825383,-0.6406395,19.43737037\H,0,24.63248393,-0.32
 667414,18.3052193\H,0,23.61949653,-1.88224725,18.90833448\H,0,25.19295
 33,-4.02362619,18.46250197\H,0,26.16581048,-4.42719282,16.93758136\H,0
 ,24.30982526,-5.46705355,16.03662722\H,0,23.35228676,-5.08001763,17.57
 54655\H,0,21.74558828,4.0713457,17.10462085\H,0,20.35704278,3.01643157
 ,17.21491238\H,0,21.89575657,2.50632246,17.86699766\H,0,20.68918691,4.
 32564604,13.28507711\H,0,22.96546726,5.07088439,14.11500977\H,0,21.662
 54758,6.16463577,13.71604249\H,0,22.34326357,3.07149465,8.70893869\H,0
 ,20.98111524,2.25491936,7.98036241\H,0,20.76392391,3.17623073,9.449062
 5\H,0,21.38195438,-1.50532553,7.96847988\H,0,23.15359438,0.04674312,7.
 08725734\H,0,22.0320054,-0.84361543,6.0860748\H,0,25.51888147,-5.28533
 861,9.43430332\H,0,23.79267955,-5.3719056,9.17778865\H,0,24.68585567,-
 3.96802005,8.64448909\H,0,25.42781304,-6.47488176,11.70401451\H,0,25.9
 6238639,-5.67824507,13.28966936\H,0,27.52129043,-4.42714427,12.0052108
 9\H,0,27.11631142,-5.54517682,10.5836993\H,0,19.23266212,-3.94014532,1
 3.7771365\H,0,24.26903526,-7.75078259,19.22406407\H,0,29.61495358,-6.2
 7272951,13.47828578\H,0,21.73894581,0.84220563,6.43989694\H,0,20.40836
 972,-0.09071643,7.80113022\H,0,20.30147725,4.47513151,14.96104087\H,0,
 21.97423612,5.74876246,15.38426499\\Version=ES64L-G16RevA.03\State=2-A
 \HF=-3881.3655652\S2=0.844817\S2-1=0.\S2A=0.751918\RMSD=1.786e-09\Dipo
 le=-4.7161825,2.3577519,0.3599185\Quadrupole=-0.7578079,-10.697754,11.
 4555619,10.4400602,-10.2722124,-12.9211887\PG=C01 [X(C41H50Fe1N6O4S1)]
 \\@


 SOME PEOPLE TRY TO PULL THE WOOL OVER YOUR EYES
 USING THE WRONG YARN.
 Job cpu time:       3 days  8 hours 51 minutes 54.1 seconds.
 Elapsed time:       0 days 20 hours 15 minutes 52.4 seconds.
 File lengths (MBytes):  RWF=   4401 Int=      0 D2E=      0 Chk=    310 Scr=      1
 Normal termination of Gaussian 16 at Thu Sep 15 06:42:26 2022.
