 Initial command:
 /afs/math/software/gaussian/g16.A03/g16/l1.exe "/scratch/zhartovska_gaussian.fz11ZXU/Gau-1143.inp" -scrdir="/scratch/zhartovska_gaussian.fz11ZXU/"
 Entering Link 1 = /afs/math/software/gaussian/g16.A03/g16/l1.exe PID=     22547.
  
 Copyright (c) 1988,1990,1992,1993,1995,1998,2003,2009,2016,
            Gaussian, Inc.  All Rights Reserved.
  
 This is part of the Gaussian(R) 16 program.  It is based on
 the Gaussian(R) 09 system (copyright 2009, Gaussian, Inc.),
 the Gaussian(R) 03 system (copyright 2003, Gaussian, Inc.),
 the Gaussian(R) 98 system (copyright 1998, Gaussian, Inc.),
 the Gaussian(R) 94 system (copyright 1995, Gaussian, Inc.),
 the Gaussian 92(TM) system (copyright 1992, Gaussian, Inc.),
 the Gaussian 90(TM) system (copyright 1990, Gaussian, Inc.),
 the Gaussian 88(TM) system (copyright 1988, Gaussian, Inc.),
 the Gaussian 86(TM) system (copyright 1986, Carnegie Mellon
 University), and the Gaussian 82(TM) system (copyright 1983,
 Carnegie Mellon University). Gaussian is a federally registered
 trademark of Gaussian, Inc.
  
 This software contains proprietary and confidential information,
 including trade secrets, belonging to Gaussian, Inc.
  
 This software is provided under written license and may be
 used, copied, transmitted, or stored only in accord with that
 written license.
  
 The following legend is applicable only to US Government
 contracts under FAR:
  
                    RESTRICTED RIGHTS LEGEND
  
 Use, reproduction and disclosure by the US Government is
 subject to restrictions as set forth in subparagraphs (a)
 and (c) of the Commercial Computer Software - Restricted
 Rights clause in FAR 52.227-19.
  
 Gaussian, Inc.
 340 Quinnipiac St., Bldg. 40, Wallingford CT 06492
  
  
 ---------------------------------------------------------------
 Warning -- This program may not be used in any manner that
 competes with the business of Gaussian, Inc. or will provide
 assistance to any competitor of Gaussian, Inc.  The licensee
 of this program is prohibited from giving any competitor of
 Gaussian, Inc. access to this program.  By using this program,
 the user acknowledges that Gaussian, Inc. is engaged in the
 business of creating and licensing software in the field of
 computational chemistry and represents and warrants to the
 licensee that it is not a competitor of Gaussian, Inc. and that
 it will not use this program in any manner prohibited above.
 ---------------------------------------------------------------
  

 Cite this work as:
 Gaussian 16, Revision A.03,
 M. J. Frisch, G. W. Trucks, H. B. Schlegel, G. E. Scuseria, 
 M. A. Robb, J. R. Cheeseman, G. Scalmani, V. Barone, 
 G. A. Petersson, H. Nakatsuji, X. Li, M. Caricato, A. V. Marenich, 
 J. Bloino, B. G. Janesko, R. Gomperts, B. Mennucci, H. P. Hratchian, 
 J. V. Ortiz, A. F. Izmaylov, J. L. Sonnenberg, D. Williams-Young, 
 F. Ding, F. Lipparini, F. Egidi, J. Goings, B. Peng, A. Petrone, 
 T. Henderson, D. Ranasinghe, V. G. Zakrzewski, J. Gao, N. Rega, 
 G. Zheng, W. Liang, M. Hada, M. Ehara, K. Toyota, R. Fukuda, 
 J. Hasegawa, M. Ishida, T. Nakajima, Y. Honda, O. Kitao, H. Nakai, 
 T. Vreven, K. Throssell, J. A. Montgomery, Jr., J. E. Peralta, 
 F. Ogliaro, M. J. Bearpark, J. J. Heyd, E. N. Brothers, K. N. Kudin, 
 V. N. Staroverov, T. A. Keith, R. Kobayashi, J. Normand, 
 K. Raghavachari, A. P. Rendell, J. C. Burant, S. S. Iyengar, 
 J. Tomasi, M. Cossi, J. M. Millam, M. Klene, C. Adamo, R. Cammi, 
 J. W. Ochterski, R. L. Martin, K. Morokuma, O. Farkas, 
 J. B. Foresman, and D. J. Fox, Gaussian, Inc., Wallingford CT, 2016.
 
 ******************************************
 Gaussian 16:  ES64L-G16RevA.03 25-Dec-2016
                21-Oct-2022 
 ******************************************
 %nprocs=12
 Will use up to   12 processors via shared memory.
 %mem=16GB
 %chk=1flp_II_S.chk
 ----------------------------------------------------------------------
 # PBE1PBE/def2TZVP empiricaldispersion=GD3BJ int=(grid=ultrafine) geom
 =check guess=read pop=nbo scf=qc
 ----------------------------------------------------------------------
 1/29=2,38=1,172=1/1;
 2/12=2,40=1/2;
 3/5=44,7=101,11=2,14=-4,25=1,30=1,74=-13,75=-5,116=-2,124=41/1,2,3;
 4/5=1/1;
 5/5=2,8=3,38=6/8;
 6/7=2,8=2,9=2,10=2,28=1,40=1/1,7;
 99/5=1,9=1/99;
 -------------
 1flp_II_S_nbo
 -------------
 Structure from the checkpoint file:  "1flp_II_S.chk"
 Charge =  0 Multiplicity = 1
 Z-Matrix found in chk file.
 C,0,1.855,1.103,19.240999
 C,0,2.991,1.833,18.511
 N,0,4.255,2.041,19.082001
 C,0,2.925,2.479,17.308001
 C,0,4.985,2.723,18.195
 N,0,4.18,3.017,17.136
 Fe,0,4.822,4.251,15.293
 C,0,5.474,6.932,17.278
 C,0,8.116,3.228,15.537
 C,0,4.14,1.437,13.497
 C,0,1.664,5.303,14.788
 N,0,6.373,4.842,16.259001
 C,0,6.512,6.009,17.037001
 C,0,7.835,6.061,17.683001
 C,0,8.575,5.051,17.173
 C,0,7.663,4.299,16.323
 C,0,10.043,4.728,17.514
 C,0,8.251,7.045,18.788
 C,0,8.136,6.433,20.212999
 C,0,6.73,6.452,20.652
 O,0,6.199,7.559,20.885
 O,0,6.081,5.431,20.542999
 N,0,5.963,2.657,14.516
 C,0,7.302,2.468,14.716
 C,0,7.7,1.232,14.055
 C,0,6.58,0.688,13.53
 C,0,5.456,1.576,13.874
 C,0,9.209,0.834,14.054
 C,0,6.244,-0.593,12.799
 C,0,7.076,-1.634,12.51
 N,0,3.336,3.613,14.298
 C,0,3.125,2.374,13.672
 C,0,1.777,2.16,13.11
 C,0,1.108,3.283,13.455
 C,0,2.042,4.087,14.214
 C,0,1.335,1.01,12.233
 C,0,-0.344,3.747,13.175
 C,0,-1.31282067,2.8313389,12.93103628
 N,0,3.804,5.821,15.858
 C,0,2.479,6.085,15.559
 C,0,2.065,7.359,16.128
 C,0,3.103,7.806,16.854
 C,0,4.228,6.869,16.673
 C,0,0.692,8.021,15.841
 C,0,3.184,9.206,17.483999
 C,0,3.407,10.303,16.416
 C,0,3.506,11.672,17.031
 O,0,4.595,12.015,17.506001
 O,0,2.468,12.316,17.226999
 O,0,5.495,5.394,13.439
 H,0,2.17861909,0.83286919,20.22446228
 H,0,1.00347556,1.7472287,19.31010403
 H,0,1.59104733,0.22004968,18.69728242
 H,0,4.55442559,1.73536294,19.98584297
 H,0,6.01600364,2.99013895,18.29780208
 H,0,2.0857576,2.55034434,16.64809026
 H,0,6.5273177,4.58586112,20.45277277
 H,0,8.72914317,7.005818,20.89487928
 H,0,8.48949828,5.42322521,20.19585707
 H,0,9.26531927,7.34203084,18.62117941
 H,0,7.62419648,7.91043403,18.73285222
 H,0,3.99551909,9.22809574,18.18102737
 H,0,2.2712407,9.40712235,18.00488311
 H,0,4.31236323,10.09343767,15.88562178
 H,0,2.5885155,10.28938181,15.72694437
 H,0,5.41161003,11.71951972,17.09680733
 H,0,0.78269163,8.6821484,15.00460427
 H,0,-0.03014099,7.26304304,15.61983574
 H,0,0.37627532,8.57449409,16.70057095
 H,0,5.65861365,7.72818761,17.9685817
 H,0,10.648935,5.59167875,17.3356694
 H,0,10.11647011,4.44723524,18.54388994
 H,0,10.38270255,3.92085456,16.89916798
 H,0,9.15705465,2.98376951,15.57516663
 H,0,0.6661989,5.64698074,14.61201644
 H,0,9.77668028,1.58653189,14.56029521
 H,0,9.33106532,-0.10298755,14.55605019
 H,0,9.5538728,0.74557419,13.04496897
 H,0,7.40195976,-1.79489651,11.50363896
 H,0,7.40289654,-2.28995872,13.28958759
 H,0,5.23127752,-0.69450999,12.46886534
 H,0,2.06625877,0.22986669,12.27240342
 H,0,0.3952526,0.63594848,12.58208492
 H,0,1.23075569,1.35051315,11.22399856
 H,0,3.86965028,0.51712783,13.02197767
 H,0,-0.58151903,4.79030448,13.17431145
 H,0,-1.09720009,1.78722159,13.02173802
 H,0,-2.29337467,3.15249472,12.64771176
 H,0,6.34633133,5.83766088,13.439
 H,0,4.79293541,6.04875591,13.439
 Recover connectivity data from disk.
 Stoichiometry    C38H40FeN6O5
 Framework group  C1[X(C38H40FeN6O5)]
 Deg. of freedom   264
 Full point group                 C1      NOp   1
 Largest Abelian subgroup         C1      NOp   1
 Largest concise Abelian subgroup C1      NOp   1
                         Standard orientation:                         
 ---------------------------------------------------------------------
 Center     Atomic      Atomic             Coordinates (Angstroms)
 Number     Number       Type             X           Y           Z
 ---------------------------------------------------------------------
      1          6           0       -1.658487    0.764350    5.244769
      2          6           0       -1.351416    0.127554    3.882238
      3          7           0       -0.898732   -1.192430    3.741803
      4          6           0       -1.341516    0.742637    2.661397
      5          6           0       -0.708107   -1.411119    2.437720
      6          7           0       -0.943675   -0.239658    1.783404
      7         26           0       -0.711074    0.070313   -0.492862
      8          6           0        2.587567   -0.725050   -0.294227
      9          6           0       -1.496083   -3.222484   -1.198377
     10          6           0       -4.039211    0.799910   -0.469878
     11          6           0       -0.021958    3.337969   -0.065969
     12          7           0        0.265188   -1.580385   -0.593591
     13          6           0        1.660629   -1.763427   -0.517861
     14          6           0        2.010440   -3.194017   -0.555216
     15          6           0        0.880496   -3.880261   -0.838230
     16          6           0       -0.182884   -2.885797   -0.834788
     17          6           0        0.756578   -5.405617   -1.021447
     18          6           0        3.397108   -3.782379   -0.249738
     19          6           0        3.520542   -4.305183    1.209656
     20          6           0        3.739659   -3.174245    2.127743
     21          8           0        4.826518   -2.561116    2.060590
     22          8           0        2.784596   -2.737189    2.737958
     23          7           0       -2.481405   -0.998169   -0.906046
     24          6           0       -2.552831   -2.329494   -1.207899
     25          6           0       -3.953737   -2.692267   -1.377834
     26          6           0       -4.681874   -1.584546   -1.115669
     27          6           0       -3.737985   -0.511207   -0.758917
     28          6           0       -4.303498   -4.146781   -1.822291
     29          6           0       -6.156567   -1.260128   -1.024828
     30          6           0       -7.210640   -2.115604   -1.153340
     31          7           0       -1.742320    1.663038   -0.421979
     32          6           0       -3.130645    1.843611   -0.314910
     33          6           0       -3.584588    3.235976   -0.130515
     34          6           0       -2.431565    3.938097   -0.057860
     35          6           0       -1.364615    2.966095   -0.165952
     36          6           0       -5.011734    3.734628   -0.170420
     37          6           0       -2.154446    5.453895    0.108149
     38          6           0       -3.079893    6.251704    0.694338
     39          7           0        0.939329    1.097838   -0.290838
     40          6           0        1.030919    2.466197   -0.106645
     41          6           0        2.422477    2.883839   -0.020770
     42          6           0        3.158464    1.760440   -0.045813
     43          6           0        2.247297    0.618378   -0.250324
     44          6           0        2.871594    4.367787    0.023190
     45          6           0        4.690819    1.727977   -0.165373
     46          6           0        5.163124    2.116738   -1.586483
     47          6           0        6.661094    2.067283   -1.712285
     48          8           0        7.188069    0.967418   -1.916709
     49          8           0        7.320270    3.068497   -1.406258
     50          8           0       -0.564035    0.338518   -2.751875
     51          1           0       -1.437921    0.064394    6.023430
     52          1           0       -1.057983    1.640718    5.372341
     53          1           0       -2.693602    1.031822    5.288301
     54          1           0       -0.746767   -1.848512    4.481034
     55          1           0       -0.422007   -2.339021    1.988227
     56          1           0       -1.587853    1.759747    2.438451
     57          1           0        1.995810   -3.274109    2.843471
     58          1           0        4.346421   -4.982240    1.276117
     59          1           0        2.620078   -4.814948    1.482060
     60          1           0        3.583805   -4.592646   -0.923171
     61          1           0        4.135685   -3.024536   -0.408099
     62          1           0        5.037070    0.740740    0.059067
     63          1           0        5.110112    2.413651    0.540987
     64          1           0        4.731922    1.439614   -2.293921
     65          1           0        4.828078    3.109101   -1.805256
     66          1           0        6.737264    0.311525   -2.453532
     67          1           0        3.066238    4.711133   -0.971359
     68          1           0        2.096713    4.962145    0.460451
     69          1           0        3.761658    4.453796    0.610803
     70          1           0        3.614331   -0.989264   -0.149845
     71          1           0        1.438345   -5.730346   -1.779500
     72          1           0        0.988951   -5.895679   -0.099091
     73          1           0       -0.243586   -5.649749   -1.312942
     74          1           0       -1.692409   -4.234084   -1.486511
     75          1           0        0.198364    4.378520    0.050699
     76          1           0       -3.400647   -4.703279   -1.963956
     77          1           0       -4.897738   -4.617340   -1.067073
     78          1           0       -4.851917   -4.116986   -2.740576
     79          1           0       -7.821945   -2.083329   -2.030931
     80          1           0       -7.426449   -2.819158   -0.376592
     81          1           0       -6.402220   -0.235773   -0.837075
     82          1           0       -5.682024    2.903281   -0.103542
     83          1           0       -5.181371    4.396686    0.652868
     84          1           0       -5.181570    4.256735   -1.088821
     85          1           0       -5.074940    1.041542   -0.352489
     86          1           0       -1.232437    5.870484   -0.240066
     87          1           0       -3.960658    5.822693    1.124572
     88          1           0       -2.929815    7.310625    0.726929
     89          1           0       -0.170102   -0.354625   -3.286636
     90          1           0        0.013803    1.105108   -2.745380
 ---------------------------------------------------------------------
 Rotational constants (GHZ):           0.0713342           0.0498990           0.0375437
 Standard basis: def2TZVP (5D, 7F)
 There are  2056 symmetry adapted cartesian basis functions of A   symmetry.
 There are  1804 symmetry adapted basis functions of A   symmetry.
  1804 basis functions,  2921 primitive gaussians,  2056 cartesian basis functions
   188 alpha electrons      188 beta electrons
       nuclear repulsion energy      7636.0322376822 Hartrees.
 NAtoms=   90 NActive=   90 NUniq=   90 SFac= 1.00D+00 NAtFMM=   60 NAOKFM=T Big=T
 Integral buffers will be    131072 words long.
 Raffenetti 2 integral format.
 Two-electron integral symmetry is turned on.
 Nuclear repulsion after empirical dispersion term =     7635.9023124764 Hartrees.
 One-electron integrals computed using PRISM.
   1 Symmetry operations used in ECPInt.
 ECPInt:  NShTT=  255255 NPrTT=  790653 LenC2=  187544 LenP2D=  376081.
 LDataN:  DoStor=T MaxTD1= 6 Len=  172
 NBasis=  1804 RedAO= T EigKep=  4.27D-06  NBF=  1804
 NBsUse=  1804 1.00D-06 EigRej= -1.00D+00 NBFU=  1804
 Initial guess from the checkpoint file:  "1flp_II_S.chk"
 B after Tr=    -0.000000    0.000000   -0.000000
         Rot=    1.000000   -0.000000   -0.000000   -0.000000 Ang=   0.00 deg.
 SCF Done:  E(RPBE1PBE) =  -3438.59654248     a.u. after    1 cycles
            Convg  =    0.8282D-06                     1 Fock formations.
              S**2 =  0.0000                  -V/T =  2.0035

 **********************************************************************

            Population analysis using the SCF density.

 **********************************************************************

 Orbital symmetries:
       Occupied  (A) (A) (A) (A) (A) (A) (A) (A) (A) (A) (A) (A)
                 (A) (A) (A) (A) (A) (A) (A) (A) (A) (A) (A) (A)
                 (A) (A) (A) (A) (A) (A) (A) (A) (A) (A) (A) (A)
                 (A) (A) (A) (A) (A) (A) (A) (A) (A) (A) (A) (A)
                 (A) (A) (A) (A) (A) (A) (A) (A) (A) (A) (A) (A)
                 (A) (A) (A) (A) (A) (A) (A) (A) (A) (A) (A) (A)
                 (A) (A) (A) (A) (A) (A) (A) (A) (A) (A) (A) (A)
                 (A) (A) (A) (A) (A) (A) (A) (A) (A) (A) (A) (A)
                 (A) (A) (A) (A) (A) (A) (A) (A) (A) (A) (A) (A)
                 (A) (A) (A) (A) (A) (A) (A) (A) (A) (A) (A) (A)
                 (A) (A) (A) (A) (A) (A) (A) (A) (A) (A) (A) (A)
                 (A) (A) (A) (A) (A) (A) (A) (A) (A) (A) (A) (A)
                 (A) (A) (A) (A) (A) (A) (A) (A) (A) (A) (A) (A)
                 (A) (A) (A) (A) (A) (A) (A) (A) (A) (A) (A) (A)
                 (A) (A) (A) (A) (A) (A) (A) (A) (A) (A) (A) (A)
                 (A) (A) (A) (A) (A) (A) (A) (A)
       Virtual   (A) (A) (A) (A) (A) (A) (A) (A) (A) (A) (A) (A)
                 (A) (A) (A) (A) (A) (A) (A) (A) (A) (A) (A) (A)
                 (A) (A) (A) (A) (A) (A) (A) (A) (A) (A) (A) (A)
                 (A) (A) (A) (A) (A) (A) (A) (A) (A) (A) (A) (A)
                 (A) (A) (A) (A) (A) (A) (A) (A) (A) (A) (A) (A)
                 (A) (A) (A) (A) (A) (A) (A) (A) (A) (A) (A) (A)
                 (A) (A) (A) (A) (A) (A) (A) (A) (A) (A) (A) (A)
                 (A) (A) (A) (A) (A) (A) (A) (A) (A) (A) (A) (A)
                 (A) (A) (A) (A) (A) (A) (A) (A) (A) (A) (A) (A)
                 (A) (A) (A) (A) (A) (A) (A) (A) (A) (A) (A) (A)
                 (A) (A) (A) (A) (A) (A) (A) (A) (A) (A) (A) (A)
                 (A) (A) (A) (A) (A) (A) (A) (A) (A) (A) (A) (A)
                 (A) (A) (A) (A) (A) (A) (A) (A) (A) (A) (A) (A)
                 (A) (A) (A) (A) (A) (A) (A) (A) (A) (A) (A) (A)
                 (A) (A) (A) (A) (A) (A) (A) (A) (A) (A) (A) (A)
                 (A) (A) (A) (A) (A) (A) (A) (A) (A) (A) (A) (A)
                 (A) (A) (A) (A) (A) (A) (A) (A) (A) (A) (A) (A)
                 (A) (A) (A) (A) (A) (A) (A) (A) (A) (A) (A) (A)
                 (A) (A) (A) (A) (A) (A) (A) (A) (A) (A) (A) (A)
                 (A) (A) (A) (A) (A) (A) (A) (A) (A) (A) (A) (A)
                 (A) (A) (A) (A) (A) (A) (A) (A) (A) (A) (A) (A)
                 (A) (A) (A) (A) (A) (A) (A) (A) (A) (A) (A) (A)
                 (A) (A) (A) (A) (A) (A) (A) (A) (A) (A) (A) (A)
                 (A) (A) (A) (A) (A) (A) (A) (A) (A) (A) (A) (A)
                 (A) (A) (A) (A) (A) (A) (A) (A) (A) (A) (A) (A)
                 (A) (A) (A) (A) (A) (A) (A) (A) (A) (A) (A) (A)
                 (A) (A) (A) (A) (A) (A) (A) (A) (A) (A) (A) (A)
                 (A) (A) (A) (A) (A) (A) (A) (A) (A) (A) (A) (A)
                 (A) (A) (A) (A) (A) (A) (A) (A) (A) (A) (A) (A)
                 (A) (A) (A) (A) (A) (A) (A) (A) (A) (A) (A) (A)
                 (A) (A) (A) (A) (A) (A) (A) (A) (A) (A) (A) (A)
                 (A) (A) (A) (A) (A) (A) (A) (A) (A) (A) (A) (A)
                 (A) (A) (A) (A) (A) (A) (A) (A) (A) (A) (A) (A)
                 (A) (A) (A) (A) (A) (A) (A) (A) (A) (A) (A) (A)
                 (A) (A) (A) (A) (A) (A) (A) (A) (A) (A) (A) (A)
                 (A) (A) (A) (A) (A) (A) (A) (A) (A) (A) (A) (A)
                 (A) (A) (A) (A) (A) (A) (A) (A) (A) (A) (A) (A)
                 (A) (A) (A) (A) (A) (A) (A) (A) (A) (A) (A) (A)
                 (A) (A) (A) (A) (A) (A) (A) (A) (A) (A) (A) (A)
                 (A) (A) (A) (A) (A) (A) (A) (A) (A) (A) (A) (A)
                 (A) (A) (A) (A) (A) (A) (A) (A) (A) (A) (A) (A)
                 (A) (A) (A) (A) (A) (A) (A) (A) (A) (A) (A) (A)
                 (A) (A) (A) (A) (A) (A) (A) (A) (A) (A) (A) (A)
                 (A) (A) (A) (A) (A) (A) (A) (A) (A) (A) (A) (A)
                 (A) (A) (A) (A) (A) (A) (A) (A) (A) (A) (A) (A)
                 (A) (A) (A) (A) (A) (A) (A) (A) (A) (A) (A) (A)
                 (A) (A) (A) (A) (A) (A) (A) (A) (A) (A) (A) (A)
                 (A) (A) (A) (A) (A) (A) (A) (A) (A) (A) (A) (A)
                 (A) (A) (A) (A) (A) (A) (A) (A) (A) (A) (A) (A)
                 (A) (A) (A) (A) (A) (A) (A) (A) (A) (A) (A) (A)
                 (A) (A) (A) (A) (A) (A) (A) (A) (A) (A) (A) (A)
                 (A) (A) (A) (A) (A) (A) (A) (A) (A) (A) (A) (A)
                 (A) (A) (A) (A) (A) (A) (A) (A) (A) (A) (A) (A)
                 (A) (A) (A) (A) (A) (A) (A) (A) (A) (A) (A) (A)
                 (A) (A) (A) (A) (A) (A) (A) (A) (A) (A) (A) (A)
                 (A) (A) (A) (A) (A) (A) (A) (A) (A) (A) (A) (A)
                 (A) (A) (A) (A) (A) (A) (A) (A) (A) (A) (A) (A)
                 (A) (A) (A) (A) (A) (A) (A) (A) (A) (A) (A) (A)
                 (A) (A) (A) (A) (A) (A) (A) (A) (A) (A) (A) (A)
                 (A) (A) (A) (A) (A) (A) (A) (A) (A) (A) (A) (A)
                 (A) (A) (A) (A) (A) (A) (A) (A) (A) (A) (A) (A)
                 (A) (A) (A) (A) (A) (A) (A) (A) (A) (A) (A) (A)
                 (A) (A) (A) (A) (A) (A) (A) (A) (A) (A) (A) (A)
                 (A) (A) (A) (A) (A) (A) (A) (A) (A) (A) (A) (A)
                 (A) (A) (A) (A) (A) (A) (A) (A) (A) (A) (A) (A)
                 (A) (A) (A) (A) (A) (A) (A) (A) (A) (A) (A) (A)
                 (A) (A) (A) (A) (A) (A) (A) (A) (A) (A) (A) (A)
                 (A) (A) (A) (A) (A) (A) (A) (A) (A) (A) (A) (A)
                 (A) (A) (A) (A) (A) (A) (A) (A) (A) (A) (A) (A)
                 (A) (A) (A) (A) (A) (A) (A) (A) (A) (A) (A) (A)
                 (A) (A) (A) (A) (A) (A) (A) (A) (A) (A) (A) (A)
                 (A) (A) (A) (A) (A) (A) (A) (A) (A) (A) (A) (A)
                 (A) (A) (A) (A) (A) (A) (A) (A) (A) (A) (A) (A)
                 (A) (A) (A) (A) (A) (A) (A) (A) (A) (A) (A) (A)
                 (A) (A) (A) (A) (A) (A) (A) (A) (A) (A) (A) (A)
                 (A) (A) (A) (A) (A) (A) (A) (A) (A) (A) (A) (A)
                 (A) (A) (A) (A) (A) (A) (A) (A) (A) (A) (A) (A)
                 (A) (A) (A) (A) (A) (A) (A) (A) (A) (A) (A) (A)
                 (A) (A) (A) (A) (A) (A) (A) (A) (A) (A) (A) (A)
                 (A) (A) (A) (A) (A) (A) (A) (A) (A) (A) (A) (A)
                 (A) (A) (A) (A) (A) (A) (A) (A) (A) (A) (A) (A)
                 (A) (A) (A) (A) (A) (A) (A) (A) (A) (A) (A) (A)
                 (A) (A) (A) (A) (A) (A) (A) (A) (A) (A) (A) (A)
                 (A) (A) (A) (A) (A) (A) (A) (A) (A) (A) (A) (A)
                 (A) (A) (A) (A) (A) (A) (A) (A) (A) (A) (A) (A)
                 (A) (A) (A) (A) (A) (A) (A) (A) (A) (A) (A) (A)
                 (A) (A) (A) (A) (A) (A) (A) (A) (A) (A) (A) (A)
                 (A) (A) (A) (A) (A) (A) (A) (A) (A) (A) (A) (A)
                 (A) (A) (A) (A) (A) (A) (A) (A) (A) (A) (A) (A)
                 (A) (A) (A) (A) (A) (A) (A) (A) (A) (A) (A) (A)
                 (A) (A) (A) (A) (A) (A) (A) (A) (A) (A) (A) (A)
                 (A) (A) (A) (A) (A) (A) (A) (A) (A) (A) (A) (A)
                 (A) (A) (A) (A) (A) (A) (A) (A) (A) (A) (A) (A)
                 (A) (A) (A) (A) (A) (A) (A) (A) (A) (A) (A) (A)
                 (A) (A) (A) (A) (A) (A) (A) (A) (A) (A) (A) (A)
                 (A) (A) (A) (A) (A) (A) (A) (A) (A) (A) (A) (A)
                 (A) (A) (A) (A) (A) (A) (A) (A) (A) (A) (A) (A)
                 (A) (A) (A) (A) (A) (A) (A) (A) (A) (A) (A) (A)
                 (A) (A) (A) (A) (A) (A) (A) (A) (A) (A) (A) (A)
                 (A) (A) (A) (A) (A) (A) (A) (A) (A) (A) (A) (A)
                 (A) (A) (A) (A) (A) (A) (A) (A) (A) (A) (A) (A)
                 (A) (A) (A) (A) (A) (A) (A) (A) (A) (A) (A) (A)
                 (A) (A) (A) (A) (A) (A) (A) (A) (A) (A) (A) (A)
                 (A) (A) (A) (A) (A) (A) (A) (A) (A) (A) (A) (A)
                 (A) (A) (A) (A) (A) (A) (A) (A) (A) (A) (A) (A)
                 (A) (A) (A) (A) (A) (A) (A) (A) (A) (A) (A) (A)
                 (A) (A) (A) (A) (A) (A) (A) (A) (A) (A) (A) (A)
                 (A) (A) (A) (A) (A) (A) (A) (A) (A) (A) (A) (A)
                 (A) (A) (A) (A) (A) (A) (A) (A) (A) (A) (A) (A)
                 (A) (A) (A) (A) (A) (A) (A) (A) (A) (A) (A) (A)
                 (A) (A) (A) (A) (A) (A) (A) (A) (A) (A) (A) (A)
                 (A) (A) (A) (A) (A) (A) (A) (A) (A) (A) (A) (A)
                 (A) (A) (A) (A) (A) (A) (A) (A) (A) (A) (A) (A)
                 (A) (A) (A) (A) (A) (A) (A) (A) (A) (A) (A) (A)
                 (A) (A) (A) (A) (A) (A) (A) (A) (A) (A) (A) (A)
                 (A) (A) (A) (A) (A) (A) (A) (A) (A) (A) (A) (A)
                 (A) (A) (A) (A) (A) (A) (A) (A) (A) (A) (A) (A)
                 (A) (A) (A) (A) (A) (A) (A) (A) (A) (A) (A) (A)
                 (A) (A) (A) (A) (A) (A) (A) (A) (A) (A) (A) (A)
                 (A) (A) (A) (A) (A) (A) (A) (A) (A) (A) (A) (A)
                 (A) (A) (A) (A) (A) (A) (A) (A) (A) (A) (A) (A)
                 (A) (A) (A) (A) (A) (A) (A) (A) (A) (A) (A) (A)
                 (A) (A) (A) (A) (A) (A) (A) (A) (A) (A) (A) (A)
                 (A) (A) (A) (A) (A) (A) (A) (A) (A) (A) (A) (A)
                 (A) (A) (A) (A) (A) (A) (A) (A) (A) (A) (A) (A)
                 (A) (A) (A) (A) (A) (A) (A) (A) (A) (A) (A) (A)
                 (A) (A) (A) (A) (A) (A) (A) (A) (A) (A) (A) (A)
                 (A) (A) (A) (A) (A) (A) (A) (A) (A) (A) (A) (A)
                 (A) (A) (A) (A) (A) (A) (A) (A) (A) (A) (A) (A)
                 (A) (A) (A) (A) (A) (A) (A) (A) (A) (A) (A) (A)
                 (A) (A) (A) (A) (A) (A) (A) (A) (A) (A) (A) (A)
                 (A) (A) (A) (A) (A) (A) (A) (A) (A) (A) (A) (A)
                 (A) (A) (A) (A) (A) (A) (A) (A) (A) (A) (A) (A)
                 (A) (A) (A) (A) (A) (A) (A) (A) (A) (A) (A) (A)
                 (A) (A) (A) (A) (A) (A) (A) (A)
 The electronic state is 1-A.
 Alpha  occ. eigenvalues -- -256.32214 -30.08998 -25.91882 -25.91456 -25.91369
 Alpha  occ. eigenvalues --  -19.28173 -19.26448 -19.23054 -19.17032 -19.16540
 Alpha  occ. eigenvalues --  -14.46414 -14.40005 -14.38465 -14.38285 -14.37750
 Alpha  occ. eigenvalues --  -14.36874 -10.34817 -10.33943 -10.29690 -10.27613
 Alpha  occ. eigenvalues --  -10.25587 -10.25413 -10.25262 -10.25118 -10.24820
 Alpha  occ. eigenvalues --  -10.24731 -10.24333 -10.24333 -10.24235 -10.24218
 Alpha  occ. eigenvalues --  -10.24163 -10.24013 -10.23679 -10.23314 -10.23285
 Alpha  occ. eigenvalues --  -10.23222 -10.22976 -10.22948 -10.22847 -10.22847
 Alpha  occ. eigenvalues --  -10.22844 -10.22658 -10.22651 -10.22301 -10.22230
 Alpha  occ. eigenvalues --  -10.22225 -10.22213 -10.21969 -10.21660 -10.21537
 Alpha  occ. eigenvalues --  -10.21438 -10.21291 -10.21241 -10.20294  -3.43783
 Alpha  occ. eigenvalues --   -2.19855  -2.19172  -2.18871  -1.19861  -1.17438
 Alpha  occ. eigenvalues --   -1.06249  -1.06224  -1.02751  -1.02379  -0.97791
 Alpha  occ. eigenvalues --   -0.96826  -0.96523  -0.95551  -0.90942  -0.84450
 Alpha  occ. eigenvalues --   -0.83433  -0.83203  -0.82911  -0.81492  -0.81314
 Alpha  occ. eigenvalues --   -0.81042  -0.80775  -0.79606  -0.78450  -0.77570
 Alpha  occ. eigenvalues --   -0.76481  -0.75324  -0.74092  -0.73113  -0.72829
 Alpha  occ. eigenvalues --   -0.72336  -0.71380  -0.71096  -0.69505  -0.69198
 Alpha  occ. eigenvalues --   -0.68390  -0.66889  -0.65660  -0.65293  -0.65086
 Alpha  occ. eigenvalues --   -0.62988  -0.61290  -0.60450  -0.59156  -0.57812
 Alpha  occ. eigenvalues --   -0.57620  -0.57020  -0.56287  -0.55157  -0.54369
 Alpha  occ. eigenvalues --   -0.54328  -0.54043  -0.53087  -0.52708  -0.51527
 Alpha  occ. eigenvalues --   -0.51400  -0.51194  -0.50372  -0.49938  -0.49110
 Alpha  occ. eigenvalues --   -0.49098  -0.48897  -0.48298  -0.48007  -0.47748
 Alpha  occ. eigenvalues --   -0.46794  -0.46267  -0.46063  -0.45699  -0.44993
 Alpha  occ. eigenvalues --   -0.44848  -0.44747  -0.44550  -0.44301  -0.44004
 Alpha  occ. eigenvalues --   -0.43822  -0.43627  -0.43560  -0.43329  -0.43169
 Alpha  occ. eigenvalues --   -0.42996  -0.42866  -0.42768  -0.42555  -0.42383
 Alpha  occ. eigenvalues --   -0.42195  -0.41711  -0.41653  -0.41277  -0.40752
 Alpha  occ. eigenvalues --   -0.40458  -0.39958  -0.39825  -0.39444  -0.39250
 Alpha  occ. eigenvalues --   -0.38953  -0.38428  -0.38339  -0.38109  -0.37933
 Alpha  occ. eigenvalues --   -0.37542  -0.37520  -0.36807  -0.36432  -0.36098
 Alpha  occ. eigenvalues --   -0.35701  -0.35349  -0.34796  -0.34237  -0.33094
 Alpha  occ. eigenvalues --   -0.32761  -0.32553  -0.32195  -0.31934  -0.31879
 Alpha  occ. eigenvalues --   -0.31629  -0.30733  -0.29715  -0.28559  -0.27896
 Alpha  occ. eigenvalues --   -0.27651  -0.26874  -0.26689  -0.26406  -0.25289
 Alpha  occ. eigenvalues --   -0.24822  -0.24272  -0.21194  -0.20464  -0.19571
 Alpha  occ. eigenvalues --   -0.19413  -0.19146  -0.17317
 Alpha virt. eigenvalues --   -0.08130  -0.07346  -0.05093  -0.01808  -0.01660
 Alpha virt. eigenvalues --   -0.00694   0.00237   0.00703   0.00799   0.01133
 Alpha virt. eigenvalues --    0.02030   0.02430   0.02728   0.03527   0.04186
 Alpha virt. eigenvalues --    0.04368   0.05022   0.05158   0.05399   0.05715
 Alpha virt. eigenvalues --    0.06353   0.06544   0.07084   0.07140   0.07802
 Alpha virt. eigenvalues --    0.08031   0.08156   0.08502   0.08658   0.08897
 Alpha virt. eigenvalues --    0.09031   0.09265   0.09850   0.10177   0.10428
 Alpha virt. eigenvalues --    0.10851   0.11071   0.11337   0.11479   0.11697
 Alpha virt. eigenvalues --    0.11801   0.12181   0.12510   0.12684   0.13091
 Alpha virt. eigenvalues --    0.13274   0.13450   0.13559   0.13787   0.13901
 Alpha virt. eigenvalues --    0.14199   0.14298   0.14554   0.14936   0.15119
 Alpha virt. eigenvalues --    0.15256   0.15539   0.15733   0.15896   0.16288
 Alpha virt. eigenvalues --    0.16518   0.16597   0.16921   0.17288   0.17494
 Alpha virt. eigenvalues --    0.17842   0.18102   0.18119   0.18451   0.18573
 Alpha virt. eigenvalues --    0.18986   0.19209   0.19404   0.19666   0.20022
 Alpha virt. eigenvalues --    0.20187   0.20321   0.20452   0.20756   0.21084
 Alpha virt. eigenvalues --    0.21276   0.21338   0.21445   0.21930   0.22203
 Alpha virt. eigenvalues --    0.22317   0.22602   0.22743   0.22983   0.23236
 Alpha virt. eigenvalues --    0.23361   0.23501   0.23649   0.23993   0.24141
 Alpha virt. eigenvalues --    0.24289   0.24602   0.24698   0.25088   0.25098
 Alpha virt. eigenvalues --    0.25190   0.25331   0.25689   0.26185   0.26453
 Alpha virt. eigenvalues --    0.26532   0.26596   0.26908   0.26989   0.27352
 Alpha virt. eigenvalues --    0.27623   0.27819   0.28183   0.28259   0.28461
 Alpha virt. eigenvalues --    0.28835   0.29043   0.29142   0.29413   0.29598
 Alpha virt. eigenvalues --    0.29838   0.29975   0.30376   0.30619   0.30780
 Alpha virt. eigenvalues --    0.30948   0.31354   0.31471   0.31689   0.32067
 Alpha virt. eigenvalues --    0.32204   0.32480   0.32672   0.32752   0.33036
 Alpha virt. eigenvalues --    0.33426   0.33542   0.33678   0.33920   0.34258
 Alpha virt. eigenvalues --    0.34542   0.34960   0.35193   0.35611   0.35663
 Alpha virt. eigenvalues --    0.36073   0.36093   0.36633   0.36803   0.36924
 Alpha virt. eigenvalues --    0.37054   0.37598   0.37708   0.37899   0.38213
 Alpha virt. eigenvalues --    0.38482   0.38644   0.38806   0.38945   0.39125
 Alpha virt. eigenvalues --    0.39292   0.39503   0.39550   0.40014   0.40149
 Alpha virt. eigenvalues --    0.40245   0.40590   0.40767   0.40861   0.41234
 Alpha virt. eigenvalues --    0.41300   0.41516   0.41696   0.41945   0.42115
 Alpha virt. eigenvalues --    0.42354   0.42511   0.42657   0.42944   0.43148
 Alpha virt. eigenvalues --    0.43243   0.43336   0.43519   0.43800   0.43966
 Alpha virt. eigenvalues --    0.44231   0.44404   0.44513   0.44750   0.44877
 Alpha virt. eigenvalues --    0.45267   0.45366   0.45461   0.45590   0.46111
 Alpha virt. eigenvalues --    0.46227   0.46498   0.46645   0.46887   0.47083
 Alpha virt. eigenvalues --    0.47209   0.47387   0.47625   0.47856   0.47980
 Alpha virt. eigenvalues --    0.48090   0.48398   0.48560   0.48839   0.48923
 Alpha virt. eigenvalues --    0.48963   0.49425   0.49610   0.49710   0.49825
 Alpha virt. eigenvalues --    0.50061   0.50233   0.50351   0.50483   0.50723
 Alpha virt. eigenvalues --    0.50946   0.51227   0.51407   0.51595   0.51704
 Alpha virt. eigenvalues --    0.51891   0.51962   0.52204   0.52536   0.52896
 Alpha virt. eigenvalues --    0.52922   0.53001   0.53479   0.53499   0.53840
 Alpha virt. eigenvalues --    0.54071   0.54405   0.54534   0.54756   0.54875
 Alpha virt. eigenvalues --    0.55090   0.55377   0.55566   0.55888   0.56084
 Alpha virt. eigenvalues --    0.56578   0.56718   0.56921   0.57139   0.57284
 Alpha virt. eigenvalues --    0.57674   0.57756   0.57821   0.58097   0.58695
 Alpha virt. eigenvalues --    0.58829   0.58980   0.59051   0.59434   0.59721
 Alpha virt. eigenvalues --    0.59920   0.60360   0.60695   0.60916   0.61096
 Alpha virt. eigenvalues --    0.61193   0.61267   0.61559   0.61923   0.62034
 Alpha virt. eigenvalues --    0.62705   0.62901   0.63296   0.63384   0.63745
 Alpha virt. eigenvalues --    0.63958   0.64266   0.64604   0.64800   0.64958
 Alpha virt. eigenvalues --    0.65118   0.65348   0.65643   0.66028   0.66132
 Alpha virt. eigenvalues --    0.66383   0.66792   0.67017   0.67399   0.67704
 Alpha virt. eigenvalues --    0.68034   0.68137   0.68415   0.68808   0.69140
 Alpha virt. eigenvalues --    0.69276   0.69484   0.69767   0.70040   0.70192
 Alpha virt. eigenvalues --    0.70363   0.70970   0.71119   0.71389   0.71741
 Alpha virt. eigenvalues --    0.72113   0.72231   0.72728   0.73146   0.73461
 Alpha virt. eigenvalues --    0.73538   0.73989   0.74160   0.74473   0.74928
 Alpha virt. eigenvalues --    0.74997   0.75081   0.75301   0.75755   0.75999
 Alpha virt. eigenvalues --    0.76489   0.76788   0.76956   0.77314   0.77440
 Alpha virt. eigenvalues --    0.77737   0.78326   0.78613   0.78798   0.79024
 Alpha virt. eigenvalues --    0.79726   0.79832   0.79870   0.80478   0.80556
 Alpha virt. eigenvalues --    0.80823   0.81028   0.81121   0.81847   0.82190
 Alpha virt. eigenvalues --    0.82482   0.82757   0.83091   0.83477   0.83600
 Alpha virt. eigenvalues --    0.83988   0.84495   0.84563   0.84830   0.85136
 Alpha virt. eigenvalues --    0.85593   0.85767   0.86123   0.86302   0.86384
 Alpha virt. eigenvalues --    0.86655   0.87004   0.87568   0.87899   0.88024
 Alpha virt. eigenvalues --    0.88086   0.88741   0.88934   0.89195   0.89544
 Alpha virt. eigenvalues --    0.89936   0.90141   0.90371   0.90759   0.91060
 Alpha virt. eigenvalues --    0.91445   0.91793   0.91915   0.92122   0.92466
 Alpha virt. eigenvalues --    0.92853   0.92999   0.93382   0.93815   0.94124
 Alpha virt. eigenvalues --    0.94485   0.94563   0.94857   0.94945   0.95254
 Alpha virt. eigenvalues --    0.95558   0.95900   0.96173   0.96375   0.96691
 Alpha virt. eigenvalues --    0.96826   0.97379   0.97452   0.98152   0.98521
 Alpha virt. eigenvalues --    0.98688   0.98854   0.99245   0.99582   0.99602
 Alpha virt. eigenvalues --    0.99861   1.00373   1.00548   1.00672   1.01519
 Alpha virt. eigenvalues --    1.01621   1.01736   1.02285   1.02617   1.02975
 Alpha virt. eigenvalues --    1.03396   1.03603   1.03975   1.04272   1.04298
 Alpha virt. eigenvalues --    1.05083   1.05308   1.05461   1.05755   1.06146
 Alpha virt. eigenvalues --    1.06751   1.07191   1.07329   1.07749   1.08037
 Alpha virt. eigenvalues --    1.08334   1.08644   1.09360   1.09667   1.09697
 Alpha virt. eigenvalues --    1.10018   1.10253   1.10927   1.10961   1.11691
 Alpha virt. eigenvalues --    1.11963   1.12252   1.12578   1.12848   1.13267
 Alpha virt. eigenvalues --    1.13450   1.13946   1.14295   1.14527   1.14837
 Alpha virt. eigenvalues --    1.15338   1.15619   1.16228   1.16599   1.16943
 Alpha virt. eigenvalues --    1.17539   1.17647   1.17955   1.18651   1.18829
 Alpha virt. eigenvalues --    1.19097   1.19711   1.19984   1.20301   1.20593
 Alpha virt. eigenvalues --    1.21067   1.22048   1.22298   1.22473   1.22621
 Alpha virt. eigenvalues --    1.23092   1.23305   1.23778   1.23880   1.24795
 Alpha virt. eigenvalues --    1.24903   1.25167   1.25660   1.26024   1.26185
 Alpha virt. eigenvalues --    1.26753   1.27127   1.27292   1.27640   1.28464
 Alpha virt. eigenvalues --    1.28543   1.28817   1.28946   1.29169   1.29653
 Alpha virt. eigenvalues --    1.30100   1.30374   1.31009   1.31275   1.31781
 Alpha virt. eigenvalues --    1.32143   1.32353   1.32785   1.33047   1.33399
 Alpha virt. eigenvalues --    1.33882   1.34301   1.34485   1.34802   1.35218
 Alpha virt. eigenvalues --    1.35853   1.36010   1.36442   1.36585   1.36922
 Alpha virt. eigenvalues --    1.37690   1.37964   1.38298   1.38576   1.39631
 Alpha virt. eigenvalues --    1.39841   1.40583   1.40637   1.40952   1.41285
 Alpha virt. eigenvalues --    1.41353   1.42277   1.42682   1.42914   1.43325
 Alpha virt. eigenvalues --    1.43506   1.43940   1.44163   1.44621   1.45232
 Alpha virt. eigenvalues --    1.45347   1.46263   1.46447   1.46775   1.47075
 Alpha virt. eigenvalues --    1.47540   1.47893   1.48192   1.48604   1.48952
 Alpha virt. eigenvalues --    1.49106   1.49680   1.49907   1.50082   1.50193
 Alpha virt. eigenvalues --    1.50735   1.51231   1.51607   1.52069   1.52192
 Alpha virt. eigenvalues --    1.52443   1.52554   1.52871   1.53223   1.53413
 Alpha virt. eigenvalues --    1.53852   1.54221   1.54392   1.54575   1.54932
 Alpha virt. eigenvalues --    1.55358   1.55410   1.55819   1.56025   1.56238
 Alpha virt. eigenvalues --    1.56315   1.56616   1.56687   1.57078   1.57268
 Alpha virt. eigenvalues --    1.57466   1.57955   1.58220   1.58438   1.58692
 Alpha virt. eigenvalues --    1.58825   1.59392   1.59716   1.59874   1.60259
 Alpha virt. eigenvalues --    1.60566   1.60857   1.61026   1.61266   1.61531
 Alpha virt. eigenvalues --    1.61676   1.61729   1.62099   1.62329   1.62495
 Alpha virt. eigenvalues --    1.62899   1.63396   1.63603   1.63964   1.64144
 Alpha virt. eigenvalues --    1.64730   1.65045   1.65342   1.65732   1.66075
 Alpha virt. eigenvalues --    1.66240   1.66752   1.66820   1.67210   1.67274
 Alpha virt. eigenvalues --    1.67934   1.68015   1.68277   1.68688   1.68965
 Alpha virt. eigenvalues --    1.69374   1.69430   1.69610   1.70066   1.70417
 Alpha virt. eigenvalues --    1.70794   1.71233   1.71419   1.71613   1.72089
 Alpha virt. eigenvalues --    1.72214   1.72322   1.72812   1.72979   1.73621
 Alpha virt. eigenvalues --    1.73837   1.74053   1.74424   1.74742   1.74980
 Alpha virt. eigenvalues --    1.75572   1.75926   1.76449   1.76638   1.76890
 Alpha virt. eigenvalues --    1.77256   1.77708   1.78032   1.78449   1.78805
 Alpha virt. eigenvalues --    1.79361   1.79606   1.79900   1.80823   1.81021
 Alpha virt. eigenvalues --    1.81166   1.82276   1.82326   1.82712   1.83148
 Alpha virt. eigenvalues --    1.83572   1.83660   1.84186   1.84691   1.84960
 Alpha virt. eigenvalues --    1.85403   1.85728   1.85977   1.86234   1.87028
 Alpha virt. eigenvalues --    1.87409   1.87861   1.87962   1.88455   1.88610
 Alpha virt. eigenvalues --    1.88973   1.89263   1.89632   1.89796   1.90630
 Alpha virt. eigenvalues --    1.91300   1.91384   1.91494   1.91645   1.92052
 Alpha virt. eigenvalues --    1.92351   1.93056   1.93213   1.93417   1.94217
 Alpha virt. eigenvalues --    1.94481   1.95022   1.95078   1.95889   1.96323
 Alpha virt. eigenvalues --    1.96434   1.97097   1.97799   1.98060   1.98156
 Alpha virt. eigenvalues --    1.98335   1.98673   1.99252   1.99581   1.99968
 Alpha virt. eigenvalues --    2.00189   2.00665   2.00871   2.01430   2.02113
 Alpha virt. eigenvalues --    2.02254   2.02504   2.02925   2.03208   2.03907
 Alpha virt. eigenvalues --    2.04296   2.04620   2.04916   2.05390   2.05711
 Alpha virt. eigenvalues --    2.05966   2.06472   2.07337   2.07761   2.08351
 Alpha virt. eigenvalues --    2.08618   2.09082   2.09255   2.09436   2.09682
 Alpha virt. eigenvalues --    2.09915   2.10200   2.11053   2.11393   2.11623
 Alpha virt. eigenvalues --    2.12254   2.12437   2.12898   2.13205   2.13909
 Alpha virt. eigenvalues --    2.14158   2.14374   2.14860   2.15066   2.15419
 Alpha virt. eigenvalues --    2.15806   2.16102   2.16199   2.16552   2.17026
 Alpha virt. eigenvalues --    2.17297   2.17809   2.18063   2.18226   2.18522
 Alpha virt. eigenvalues --    2.18800   2.19130   2.19543   2.20058   2.20796
 Alpha virt. eigenvalues --    2.20890   2.21372   2.21511   2.22083   2.22157
 Alpha virt. eigenvalues --    2.23116   2.23318   2.23740   2.24157   2.24623
 Alpha virt. eigenvalues --    2.24913   2.25401   2.25834   2.26263   2.26729
 Alpha virt. eigenvalues --    2.27067   2.27354   2.27675   2.28272   2.28763
 Alpha virt. eigenvalues --    2.29264   2.29480   2.29838   2.30358   2.30773
 Alpha virt. eigenvalues --    2.31108   2.32150   2.32297   2.32666   2.33231
 Alpha virt. eigenvalues --    2.33513   2.33809   2.34083   2.34450   2.35034
 Alpha virt. eigenvalues --    2.35162   2.35255   2.35665   2.36071   2.36467
 Alpha virt. eigenvalues --    2.36865   2.36962   2.37529   2.37890   2.38081
 Alpha virt. eigenvalues --    2.38954   2.39176   2.39659   2.39703   2.39973
 Alpha virt. eigenvalues --    2.40118   2.40876   2.41347   2.41761   2.42420
 Alpha virt. eigenvalues --    2.42672   2.42864   2.43485   2.44182   2.44339
 Alpha virt. eigenvalues --    2.44617   2.44987   2.45474   2.45841   2.46543
 Alpha virt. eigenvalues --    2.47075   2.47345   2.47419   2.47592   2.47955
 Alpha virt. eigenvalues --    2.48978   2.49176   2.49805   2.50296   2.50636
 Alpha virt. eigenvalues --    2.51015   2.51300   2.51633   2.51855   2.52470
 Alpha virt. eigenvalues --    2.52885   2.53334   2.53420   2.53518   2.54522
 Alpha virt. eigenvalues --    2.54847   2.55068   2.55287   2.55413   2.56042
 Alpha virt. eigenvalues --    2.56614   2.56771   2.57089   2.57192   2.57383
 Alpha virt. eigenvalues --    2.57823   2.58036   2.58542   2.58618   2.58703
 Alpha virt. eigenvalues --    2.58943   2.59291   2.59465   2.60000   2.60050
 Alpha virt. eigenvalues --    2.60278   2.60691   2.61500   2.62208   2.62377
 Alpha virt. eigenvalues --    2.62495   2.62850   2.63225   2.63598   2.63724
 Alpha virt. eigenvalues --    2.64128   2.64285   2.64527   2.64747   2.65292
 Alpha virt. eigenvalues --    2.65496   2.65661   2.66384   2.66765   2.66835
 Alpha virt. eigenvalues --    2.67027   2.67338   2.67775   2.68162   2.68362
 Alpha virt. eigenvalues --    2.68669   2.69127   2.69472   2.69825   2.70102
 Alpha virt. eigenvalues --    2.70831   2.70953   2.71218   2.71862   2.72341
 Alpha virt. eigenvalues --    2.72541   2.73331   2.73488   2.73920   2.74162
 Alpha virt. eigenvalues --    2.74682   2.75099   2.75541   2.75980   2.76120
 Alpha virt. eigenvalues --    2.76685   2.77213   2.77494   2.77804   2.78239
 Alpha virt. eigenvalues --    2.78935   2.79229   2.79369   2.80018   2.80402
 Alpha virt. eigenvalues --    2.80806   2.81025   2.81372   2.81735   2.81992
 Alpha virt. eigenvalues --    2.82264   2.82563   2.82960   2.83090   2.83379
 Alpha virt. eigenvalues --    2.83634   2.83843   2.84010   2.84339   2.85364
 Alpha virt. eigenvalues --    2.85536   2.86056   2.86291   2.86417   2.86768
 Alpha virt. eigenvalues --    2.87250   2.87691   2.87764   2.87866   2.88680
 Alpha virt. eigenvalues --    2.88736   2.89501   2.89935   2.90208   2.90522
 Alpha virt. eigenvalues --    2.91002   2.91165   2.91715   2.92026   2.92049
 Alpha virt. eigenvalues --    2.92672   2.92888   2.93085   2.93374   2.94070
 Alpha virt. eigenvalues --    2.94577   2.94689   2.95087   2.95332   2.95495
 Alpha virt. eigenvalues --    2.95899   2.95917   2.96378   2.96549   2.97039
 Alpha virt. eigenvalues --    2.97133   2.97389   2.97910   2.98254   2.98478
 Alpha virt. eigenvalues --    2.99035   2.99271   2.99832   3.00140   3.00516
 Alpha virt. eigenvalues --    3.00759   3.01143   3.01469   3.01911   3.02249
 Alpha virt. eigenvalues --    3.02535   3.02874   3.03012   3.03386   3.03593
 Alpha virt. eigenvalues --    3.04131   3.04263   3.04682   3.05091   3.05317
 Alpha virt. eigenvalues --    3.05455   3.05923   3.06332   3.06682   3.07011
 Alpha virt. eigenvalues --    3.07082   3.07481   3.07724   3.07905   3.08002
 Alpha virt. eigenvalues --    3.08751   3.08850   3.09060   3.09511   3.09772
 Alpha virt. eigenvalues --    3.09922   3.10110   3.10288   3.11135   3.11505
 Alpha virt. eigenvalues --    3.11787   3.12032   3.12163   3.12588   3.12822
 Alpha virt. eigenvalues --    3.12934   3.12964   3.13374   3.13818   3.14207
 Alpha virt. eigenvalues --    3.14427   3.14564   3.14934   3.15666   3.15846
 Alpha virt. eigenvalues --    3.16106   3.16476   3.16579   3.16841   3.17086
 Alpha virt. eigenvalues --    3.17442   3.17766   3.17919   3.18273   3.18595
 Alpha virt. eigenvalues --    3.19030   3.19219   3.19460   3.19585   3.19827
 Alpha virt. eigenvalues --    3.19918   3.20566   3.20799   3.20972   3.21044
 Alpha virt. eigenvalues --    3.21284   3.21659   3.21831   3.22393   3.22535
 Alpha virt. eigenvalues --    3.22611   3.23215   3.23267   3.23486   3.23749
 Alpha virt. eigenvalues --    3.23801   3.24446   3.24528   3.24968   3.25129
 Alpha virt. eigenvalues --    3.25560   3.25916   3.26229   3.26455   3.26737
 Alpha virt. eigenvalues --    3.26982   3.27076   3.27352   3.27514   3.27718
 Alpha virt. eigenvalues --    3.27921   3.28239   3.28881   3.29013   3.29234
 Alpha virt. eigenvalues --    3.29713   3.29840   3.29994   3.30279   3.30591
 Alpha virt. eigenvalues --    3.30737   3.31263   3.31778   3.31907   3.32254
 Alpha virt. eigenvalues --    3.32428   3.32593   3.33012   3.33178   3.33432
 Alpha virt. eigenvalues --    3.33593   3.33955   3.34264   3.34491   3.34932
 Alpha virt. eigenvalues --    3.35106   3.35312   3.35549   3.36006   3.36102
 Alpha virt. eigenvalues --    3.36148   3.36342   3.36725   3.37467   3.37657
 Alpha virt. eigenvalues --    3.38197   3.38307   3.38314   3.38614   3.39005
 Alpha virt. eigenvalues --    3.39320   3.39628   3.39708   3.39992   3.40333
 Alpha virt. eigenvalues --    3.40651   3.40928   3.41509   3.41644   3.42164
 Alpha virt. eigenvalues --    3.42568   3.42799   3.43100   3.43396   3.43536
 Alpha virt. eigenvalues --    3.43755   3.44313   3.44489   3.44758   3.44912
 Alpha virt. eigenvalues --    3.45760   3.46304   3.46551   3.46802   3.47136
 Alpha virt. eigenvalues --    3.47697   3.47908   3.48322   3.48521   3.49373
 Alpha virt. eigenvalues --    3.49780   3.49958   3.50367   3.50673   3.50806
 Alpha virt. eigenvalues --    3.51116   3.51373   3.51797   3.52308   3.52489
 Alpha virt. eigenvalues --    3.53023   3.53132   3.53401   3.53692   3.53880
 Alpha virt. eigenvalues --    3.54412   3.54613   3.55038   3.55422   3.55645
 Alpha virt. eigenvalues --    3.55702   3.56435   3.56644   3.57102   3.57316
 Alpha virt. eigenvalues --    3.57545   3.57778   3.58025   3.58162   3.58875
 Alpha virt. eigenvalues --    3.59427   3.59669   3.60009   3.60459   3.60886
 Alpha virt. eigenvalues --    3.61138   3.61782   3.61924   3.62190   3.62631
 Alpha virt. eigenvalues --    3.63244   3.63467   3.63828   3.64011   3.64266
 Alpha virt. eigenvalues --    3.64695   3.65106   3.65246   3.65645   3.66547
 Alpha virt. eigenvalues --    3.66967   3.67164   3.67434   3.67912   3.68351
 Alpha virt. eigenvalues --    3.68672   3.69017   3.69747   3.69916   3.70648
 Alpha virt. eigenvalues --    3.71151   3.71296   3.71720   3.72158   3.72338
 Alpha virt. eigenvalues --    3.72778   3.72903   3.73255   3.73662   3.74011
 Alpha virt. eigenvalues --    3.74740   3.75082   3.75826   3.76227   3.76409
 Alpha virt. eigenvalues --    3.77003   3.77511   3.77903   3.78062   3.78393
 Alpha virt. eigenvalues --    3.79418   3.79749   3.79937   3.80762   3.81128
 Alpha virt. eigenvalues --    3.81509   3.81670   3.82033   3.82462   3.83045
 Alpha virt. eigenvalues --    3.83849   3.84147   3.84874   3.85216   3.85424
 Alpha virt. eigenvalues --    3.85689   3.85928   3.86446   3.86521   3.87520
 Alpha virt. eigenvalues --    3.87967   3.88644   3.88955   3.89587   3.90321
 Alpha virt. eigenvalues --    3.91072   3.91825   3.92211   3.92808   3.93203
 Alpha virt. eigenvalues --    3.93579   3.93679   3.94466   3.95214   3.95515
 Alpha virt. eigenvalues --    3.96046   3.96675   3.97301   3.98061   3.98723
 Alpha virt. eigenvalues --    3.99024   3.99357   4.00573   4.01211   4.01813
 Alpha virt. eigenvalues --    4.02283   4.02812   4.03625   4.04358   4.04703
 Alpha virt. eigenvalues --    4.05360   4.06079   4.06204   4.06915   4.07084
 Alpha virt. eigenvalues --    4.07652   4.08508   4.08580   4.09689   4.09956
 Alpha virt. eigenvalues --    4.10083   4.11544   4.11689   4.11928   4.12406
 Alpha virt. eigenvalues --    4.13279   4.13543   4.13967   4.14532   4.14631
 Alpha virt. eigenvalues --    4.15895   4.16269   4.16521   4.16842   4.17667
 Alpha virt. eigenvalues --    4.18184   4.18653   4.18854   4.19404   4.19531
 Alpha virt. eigenvalues --    4.20176   4.20489   4.21241   4.21437   4.22316
 Alpha virt. eigenvalues --    4.22494   4.23206   4.23469   4.23918   4.24312
 Alpha virt. eigenvalues --    4.24994   4.25671   4.26504   4.26709   4.27196
 Alpha virt. eigenvalues --    4.27333   4.27739   4.28644   4.29506   4.29696
 Alpha virt. eigenvalues --    4.30006   4.30613   4.30966   4.31309   4.31621
 Alpha virt. eigenvalues --    4.32154   4.32835   4.33250   4.33618   4.33889
 Alpha virt. eigenvalues --    4.34439   4.34941   4.35749   4.36013   4.36448
 Alpha virt. eigenvalues --    4.36791   4.37688   4.38186   4.38525   4.38671
 Alpha virt. eigenvalues --    4.39396   4.39854   4.40178   4.40488   4.41434
 Alpha virt. eigenvalues --    4.41572   4.41720   4.42808   4.43539   4.44193
 Alpha virt. eigenvalues --    4.45147   4.45623   4.46484   4.46964   4.47689
 Alpha virt. eigenvalues --    4.48056   4.48635   4.48990   4.50091   4.51545
 Alpha virt. eigenvalues --    4.52140   4.53525   4.54377   4.54572   4.55051
 Alpha virt. eigenvalues --    4.55740   4.56777   4.56893   4.57933   4.58125
 Alpha virt. eigenvalues --    4.59228   4.59734   4.60069   4.60261   4.61069
 Alpha virt. eigenvalues --    4.61931   4.62757   4.63691   4.64474   4.64719
 Alpha virt. eigenvalues --    4.65511   4.66259   4.67194   4.67402   4.67920
 Alpha virt. eigenvalues --    4.69227   4.69325   4.70418   4.70733   4.70998
 Alpha virt. eigenvalues --    4.71360   4.71773   4.72340   4.72595   4.73292
 Alpha virt. eigenvalues --    4.73993   4.74459   4.75422   4.75689   4.76432
 Alpha virt. eigenvalues --    4.76669   4.77645   4.78532   4.79424   4.80441
 Alpha virt. eigenvalues --    4.80823   4.80929   4.81566   4.81750   4.83680
 Alpha virt. eigenvalues --    4.84178   4.84539   4.85928   4.86297   4.86971
 Alpha virt. eigenvalues --    4.88516   4.89092   4.89411   4.90025   4.91356
 Alpha virt. eigenvalues --    4.91920   4.93056   4.93508   4.94094   4.94639
 Alpha virt. eigenvalues --    4.95337   4.95594   4.96574   4.96828   4.97928
 Alpha virt. eigenvalues --    4.99467   5.00327   5.00674   5.02170   5.02330
 Alpha virt. eigenvalues --    5.04386   5.05312   5.06018   5.06798   5.07177
 Alpha virt. eigenvalues --    5.08341   5.08575   5.10115   5.11459   5.13492
 Alpha virt. eigenvalues --    5.13629   5.14818   5.15246   5.16165   5.17052
 Alpha virt. eigenvalues --    5.18287   5.19410   5.19452   5.20490   5.20648
 Alpha virt. eigenvalues --    5.21226   5.22388   5.23298   5.23372   5.23779
 Alpha virt. eigenvalues --    5.24115   5.24271   5.24986   5.25752   5.26403
 Alpha virt. eigenvalues --    5.26751   5.28363   5.29301   5.30530   5.31904
 Alpha virt. eigenvalues --    5.32939   5.33901   5.34004   5.34435   5.35227
 Alpha virt. eigenvalues --    5.35895   5.36139   5.37695   5.37914   5.38129
 Alpha virt. eigenvalues --    5.38983   5.39437   5.41983   5.42597   5.43262
 Alpha virt. eigenvalues --    5.44090   5.45272   5.45935   5.46127   5.47090
 Alpha virt. eigenvalues --    5.47141   5.47977   5.48861   5.50440   5.51473
 Alpha virt. eigenvalues --    5.54403   5.54595   5.55610   5.57489   5.58616
 Alpha virt. eigenvalues --    5.58752   5.59824   5.60379   5.61104   5.61536
 Alpha virt. eigenvalues --    5.64271   5.65356   5.65875   5.67823   5.69049
 Alpha virt. eigenvalues --    5.70145   5.71010   5.72666   5.74436   5.77365
 Alpha virt. eigenvalues --    5.79538   5.81855   5.87088   5.90084   5.90221
 Alpha virt. eigenvalues --    5.90527   5.91991   5.92562   5.93473   5.95252
 Alpha virt. eigenvalues --    5.96688   5.98205   5.98557   5.99353   6.05429
 Alpha virt. eigenvalues --    6.05621   6.05778   6.05986   6.07890   6.08885
 Alpha virt. eigenvalues --    6.09568   6.10178   6.12848   6.15483   6.21212
 Alpha virt. eigenvalues --    6.21549   6.22862   6.23423   6.24992   6.26975
 Alpha virt. eigenvalues --    6.29279   6.33740   6.35615   6.39184   6.40121
 Alpha virt. eigenvalues --    6.47760   6.48297   6.49368   6.51246   6.51529
 Alpha virt. eigenvalues --    6.54635   6.55595   6.56271   6.64208   6.71394
 Alpha virt. eigenvalues --    6.74494   6.78719   6.80462   6.88627   6.89978
 Alpha virt. eigenvalues --    6.95584   6.97594   6.99082   7.01151   7.04295
 Alpha virt. eigenvalues --    7.04552   7.15170   7.15416   7.19706   7.22115
 Alpha virt. eigenvalues --    7.30363   7.32577  22.29867  22.39681  22.48313
 Alpha virt. eigenvalues --   22.50750  22.52166  22.55465  22.58080  22.61016
 Alpha virt. eigenvalues --   22.67181  22.68062  22.69769  22.72948  22.76797
 Alpha virt. eigenvalues --   22.78172  22.85455  22.86908  22.91420  22.92891
 Alpha virt. eigenvalues --   22.94914  22.95457  23.00151  23.02635  23.12582
 Alpha virt. eigenvalues --   23.14149  23.15003  23.19494  23.23509  23.36385
 Alpha virt. eigenvalues --   23.37946  23.45777  23.49505  23.53518  23.64391
 Alpha virt. eigenvalues --   23.68173  23.72391  23.73342  23.74736  23.86656
 Alpha virt. eigenvalues --   32.42788  32.66304  32.88419  32.94656  32.98161
 Alpha virt. eigenvalues --   33.10851  43.92815  43.93268  44.01789  44.09328
 Alpha virt. eigenvalues --   44.15981
          Condensed to atoms (all electrons):
 Mulliken charges:
               1
     1  C   -0.367493
     2  C    0.132978
     3  N   -0.217910
     4  C   -0.146189
     5  C    0.022015
     6  N   -0.136241
     7  Fe  -0.146621
     8  C   -0.441764
     9  C   -0.372749
    10  C   -0.439567
    11  C   -0.433129
    12  N    0.015045
    13  C    0.241685
    14  C   -0.175745
    15  C   -0.045328
    16  C    0.145194
    17  C   -0.383455
    18  C   -0.163058
    19  C   -0.231278
    20  C    0.251373
    21  O   -0.387305
    22  O   -0.232531
    23  N   -0.084595
    24  C    0.203554
    25  C   -0.063116
    26  C   -0.044924
    27  C    0.276469
    28  C   -0.340610
    29  C   -0.152520
    30  C   -0.399013
    31  N    0.002751
    32  C    0.328076
    33  C   -0.084189
    34  C   -0.005345
    35  C    0.232570
    36  C   -0.344026
    37  C   -0.216490
    38  C   -0.250707
    39  N   -0.042839
    40  C    0.265311
    41  C   -0.122476
    42  C    0.010692
    43  C    0.187625
    44  C   -0.395332
    45  C   -0.292543
    46  C   -0.279935
    47  C    0.322115
    48  O   -0.285420
    49  O   -0.366340
    50  O   -0.544752
    51  H    0.115365
    52  H    0.150908
    53  H    0.148393
    54  H    0.231271
    55  H    0.147653
    56  H    0.161457
    57  H    0.327638
    58  H    0.127992
    59  H    0.097254
    60  H    0.119920
    61  H    0.131128
    62  H    0.136653
    63  H    0.139905
    64  H    0.115935
    65  H    0.118280
    66  H    0.341110
    67  H    0.142570
    68  H    0.133486
    69  H    0.145648
    70  H    0.128394
    71  H    0.139861
    72  H    0.123052
    73  H    0.128818
    74  H    0.073833
    75  H    0.074607
    76  H    0.115187
    77  H    0.134546
    78  H    0.132641
    79  H    0.142142
    80  H    0.135176
    81  H    0.119285
    82  H    0.123359
    83  H    0.115691
    84  H    0.148818
    85  H    0.075058
    86  H    0.122684
    87  H    0.113863
    88  H    0.128216
    89  H    0.339606
    90  H    0.350682
 Sum of Mulliken charges =  -0.00000
 Mulliken charges with hydrogens summed into heavy atoms:
               1
     1  C    0.047173
     2  C    0.132978
     3  N    0.013361
     4  C    0.015268
     5  C    0.169668
     6  N   -0.136241
     7  Fe  -0.146621
     8  C   -0.313371
     9  C   -0.298916
    10  C   -0.364509
    11  C   -0.358522
    12  N    0.015045
    13  C    0.241685
    14  C   -0.175745
    15  C   -0.045328
    16  C    0.145194
    17  C    0.008276
    18  C    0.087990
    19  C   -0.006031
    20  C    0.251373
    21  O   -0.387305
    22  O    0.095107
    23  N   -0.084595
    24  C    0.203554
    25  C   -0.063116
    26  C   -0.044924
    27  C    0.276469
    28  C    0.041764
    29  C   -0.033235
    30  C   -0.121696
    31  N    0.002751
    32  C    0.328076
    33  C   -0.084189
    34  C   -0.005345
    35  C    0.232570
    36  C    0.043843
    37  C   -0.093806
    38  C   -0.008628
    39  N   -0.042839
    40  C    0.265311
    41  C   -0.122476
    42  C    0.010692
    43  C    0.187625
    44  C    0.026371
    45  C   -0.015985
    46  C   -0.045721
    47  C    0.322115
    48  O    0.055690
    49  O   -0.366340
    50  O    0.145537
 Electronic spatial extent (au):  <R**2>=          30508.5743
 Charge=             -0.0000 electrons
 Dipole moment (field-independent basis, Debye):
    X=             -4.8617    Y=             -5.7516    Z=              2.4597  Tot=              7.9226
 Quadrupole moment (field-independent basis, Debye-Ang):
   XX=           -370.7570   YY=           -269.7932   ZZ=           -263.4743
   XY=            -31.8691   XZ=            -25.0025   YZ=             -3.7705
 Traceless Quadrupole moment (field-independent basis, Debye-Ang):
   XX=            -69.4155   YY=             31.5483   ZZ=             37.8672
   XY=            -31.8691   XZ=            -25.0025   YZ=             -3.7705
 Octapole moment (field-independent basis, Debye-Ang**2):
  XXX=           -431.6295  YYY=           -116.0753  ZZZ=             85.2294  XYY=            -47.9552
  XXY=           -154.7076  XXZ=            -42.1953  XZZ=             21.7492  YZZ=            -64.7669
  YYZ=             59.2733  XYZ=             41.2431
 Hexadecapole moment (field-independent basis, Debye-Ang**3):
 XXXX=         -26743.4778 YYYY=         -13640.3920 ZZZZ=          -4299.5497 XXXY=          -1942.3647
 XXXZ=           -202.4973 YYYX=           -562.4074 YYYZ=           -129.2886 ZZZX=           -397.3263
 ZZZY=           -285.0678 XXYY=          -6634.0293 XXZZ=          -4434.8960 YYZZ=          -3123.1825
 XXYZ=            479.4299 YYXZ=            100.6735 ZZXY=             16.5785
 N-N= 7.635902312476D+03 E-N=-2.335231330652D+04  KE= 3.426445687339D+03
 ******************************Gaussian NBO Version 3.1******************************
             N A T U R A L   A T O M I C   O R B I T A L   A N D
          N A T U R A L   B O N D   O R B I T A L   A N A L Y S I S
 ******************************Gaussian NBO Version 3.1******************************
       /RESON  / : Allow strongly delocalized NBO set

 Analyzing the SCF density

 Job title: 1flp_II_S_nbo                                                   

 Storage needed:   9789442 in NPA,  13031221 in NBO (2147442248 available)
 GSVD:  LWork=     1445622 too small for GESVD, short by     2163425 words or     2163425 for optimal perf.


 NATURAL POPULATIONS:  Natural atomic orbital occupancies 
                                                          
   NAO  Atom  No  lang   Type(AO)    Occupancy      Energy
 ----------------------------------------------------------
     1    C    1  S      Cor( 1S)     1.99939     -10.08547
     2    C    1  S      Val( 2S)     1.10878      -0.31824
     3    C    1  S      Ryd( 3S)     0.00053       1.04656
     4    C    1  S      Ryd( 4S)     0.00012       1.95075
     5    C    1  S      Ryd( 5S)     0.00000      21.68319
     6    C    1  px     Val( 2p)     1.22687      -0.12631
     7    C    1  px     Ryd( 3p)     0.00028       0.72031
     8    C    1  px     Ryd( 4p)     0.00013       1.44872
     9    C    1  py     Val( 2p)     1.20800      -0.12487
    10    C    1  py     Ryd( 3p)     0.00077       0.79250
    11    C    1  py     Ryd( 4p)     0.00008       1.55863
    12    C    1  pz     Val( 2p)     1.09033      -0.11913
    13    C    1  pz     Ryd( 3p)     0.00037       0.75459
    14    C    1  pz     Ryd( 4p)     0.00030       1.52113
    15    C    1  dxy    Ryd( 4d)     0.00054       2.88945
    16    C    1  dxy    Ryd( 3d)     0.00006       2.44031
    17    C    1  dxz    Ryd( 4d)     0.00042       2.69524
    18    C    1  dxz    Ryd( 3d)     0.00019       2.28999
    19    C    1  dyz    Ryd( 4d)     0.00066       3.30198
    20    C    1  dyz    Ryd( 3d)     0.00005       2.41688
    21    C    1  dx2y2  Ryd( 4d)     0.00052       2.87207
    22    C    1  dx2y2  Ryd( 3d)     0.00007       2.49962
    23    C    1  dz2    Ryd( 4d)     0.00059       3.32573
    24    C    1  dz2    Ryd( 3d)     0.00003       2.51491
    25    C    1  f(0)   Ryd( 4f)     0.00004       3.43907
    26    C    1  f(C1)  Ryd( 4f)     0.00005       3.40956
    27    C    1  f(S1)  Ryd( 4f)     0.00014       3.68529
    28    C    1  f(C2)  Ryd( 4f)     0.00001       3.38691
    29    C    1  f(S2)  Ryd( 4f)     0.00001       3.33573
    30    C    1  f(C3)  Ryd( 4f)     0.00009       3.57657
    31    C    1  f(S3)  Ryd( 4f)     0.00003       3.32064

    32    C    2  S      Cor( 1S)     1.99910     -10.13803
    33    C    2  S      Val( 2S)     0.91421      -0.23214
    34    C    2  S      Ryd( 3S)     0.00124       1.57419
    35    C    2  S      Ryd( 4S)     0.00003       1.93070
    36    C    2  S      Ryd( 5S)     0.00001      20.97835
    37    C    2  px     Val( 2p)     1.04651      -0.12512
    38    C    2  px     Ryd( 3p)     0.00314       0.77229
    39    C    2  px     Ryd( 4p)     0.00038       1.37692
    40    C    2  py     Val( 2p)     0.85908      -0.06044
    41    C    2  py     Ryd( 3p)     0.00289       1.15557
    42    C    2  py     Ryd( 4p)     0.00014       1.90447
    43    C    2  pz     Val( 2p)     1.05159      -0.08216
    44    C    2  pz     Ryd( 3p)     0.00345       1.38549
    45    C    2  pz     Ryd( 4p)     0.00033       2.08703
    46    C    2  dxy    Ryd( 3d)     0.00046       1.29262
    47    C    2  dxy    Ryd( 4d)     0.00035       3.42625
    48    C    2  dxz    Ryd( 3d)     0.00083       1.21540
    49    C    2  dxz    Ryd( 4d)     0.00048       3.31265
    50    C    2  dyz    Ryd( 3d)     0.00126       1.61942
    51    C    2  dyz    Ryd( 4d)     0.00078       3.68913
    52    C    2  dx2y2  Ryd( 3d)     0.00040       1.40435
    53    C    2  dx2y2  Ryd( 4d)     0.00035       3.66006
    54    C    2  dz2    Ryd( 3d)     0.00097       1.74419
    55    C    2  dz2    Ryd( 4d)     0.00066       3.77928
    56    C    2  f(0)   Ryd( 4f)     0.00014       4.01938
    57    C    2  f(C1)  Ryd( 4f)     0.00024       3.57354
    58    C    2  f(S1)  Ryd( 4f)     0.00014       4.16019
    59    C    2  f(C2)  Ryd( 4f)     0.00008       3.68168
    60    C    2  f(S2)  Ryd( 4f)     0.00005       3.59379
    61    C    2  f(C3)  Ryd( 4f)     0.00009       3.57286
    62    C    2  f(S3)  Ryd( 4f)     0.00007       3.53613

    63    N    3  S      Cor( 1S)     1.99939     -14.26884
    64    N    3  S      Val( 2S)     1.25052      -0.60650
    65    N    3  S      Ryd( 3S)     0.00100       1.74327
    66    N    3  S      Ryd( 4S)     0.00007       2.71485
    67    N    3  S      Ryd( 5S)     0.00000      30.37502
    68    N    3  px     Val( 2p)     1.53733      -0.29558
    69    N    3  px     Ryd( 3p)     0.00212       0.58719
    70    N    3  px     Ryd( 4p)     0.00038       2.28870
    71    N    3  py     Val( 2p)     1.34670      -0.27926
    72    N    3  py     Ryd( 3p)     0.00196       1.02733
    73    N    3  py     Ryd( 4p)     0.00030       2.79941
    74    N    3  pz     Val( 2p)     1.33773      -0.28706
    75    N    3  pz     Ryd( 3p)     0.00207       1.06512
    76    N    3  pz     Ryd( 4p)     0.00031       3.03778
    77    N    3  dxy    Ryd( 3d)     0.00158       1.45770
    78    N    3  dxy    Ryd( 4d)     0.00005       4.59552
    79    N    3  dxz    Ryd( 3d)     0.00104       1.30197
    80    N    3  dxz    Ryd( 4d)     0.00008       4.49097
    81    N    3  dyz    Ryd( 3d)     0.00175       1.75144
    82    N    3  dyz    Ryd( 4d)     0.00027       4.90023
    83    N    3  dx2y2  Ryd( 3d)     0.00204       1.54392
    84    N    3  dx2y2  Ryd( 4d)     0.00005       4.68119
    85    N    3  dz2    Ryd( 3d)     0.00374       1.71906
    86    N    3  dz2    Ryd( 4d)     0.00005       4.95611
    87    N    3  f(0)   Ryd( 4f)     0.00015       4.92602
    88    N    3  f(C1)  Ryd( 4f)     0.00028       4.49032
    89    N    3  f(S1)  Ryd( 4f)     0.00020       5.08575
    90    N    3  f(C2)  Ryd( 4f)     0.00013       4.58289
    91    N    3  f(S2)  Ryd( 4f)     0.00007       4.39373
    92    N    3  f(C3)  Ryd( 4f)     0.00020       4.46563
    93    N    3  f(S3)  Ryd( 4f)     0.00022       4.43773

    94    C    4  S      Cor( 1S)     1.99890     -10.10058
    95    C    4  S      Val( 2S)     0.94939      -0.21247
    96    C    4  S      Ryd( 4S)     0.00167       1.42719
    97    C    4  S      Ryd( 3S)     0.00012       1.38096
    98    C    4  S      Ryd( 5S)     0.00000      21.75860
    99    C    4  px     Val( 2p)     1.02814      -0.11400
   100    C    4  px     Ryd( 3p)     0.00207       0.74710
   101    C    4  px     Ryd( 4p)     0.00066       1.30646
   102    C    4  py     Val( 2p)     1.12408      -0.06909
   103    C    4  py     Ryd( 3p)     0.00234       1.18815
   104    C    4  py     Ryd( 4p)     0.00087       1.49890
   105    C    4  pz     Val( 2p)     0.95319      -0.06595
   106    C    4  pz     Ryd( 3p)     0.00273       1.03862
   107    C    4  pz     Ryd( 4p)     0.00080       1.68690
   108    C    4  dxy    Ryd( 3d)     0.00076       1.47153
   109    C    4  dxy    Ryd( 4d)     0.00008       3.11825
   110    C    4  dxz    Ryd( 3d)     0.00045       1.45261
   111    C    4  dxz    Ryd( 4d)     0.00018       3.15760
   112    C    4  dyz    Ryd( 3d)     0.00161       1.86321
   113    C    4  dyz    Ryd( 4d)     0.00044       3.62298
   114    C    4  dx2y2  Ryd( 3d)     0.00098       1.69682
   115    C    4  dx2y2  Ryd( 4d)     0.00012       3.38155
   116    C    4  dz2    Ryd( 3d)     0.00118       1.77817
   117    C    4  dz2    Ryd( 4d)     0.00050       3.52288
   118    C    4  f(0)   Ryd( 4f)     0.00006       3.90000
   119    C    4  f(C1)  Ryd( 4f)     0.00004       3.47142
   120    C    4  f(S1)  Ryd( 4f)     0.00008       4.27353
   121    C    4  f(C2)  Ryd( 4f)     0.00006       3.80722
   122    C    4  f(S2)  Ryd( 4f)     0.00005       3.62396
   123    C    4  f(C3)  Ryd( 4f)     0.00011       3.59550
   124    C    4  f(S3)  Ryd( 4f)     0.00011       3.63598

   125    C    5  S      Cor( 1S)     1.99941     -10.16875
   126    C    5  S      Val( 2S)     0.91427      -0.22812
   127    C    5  S      Ryd( 4S)     0.00203       1.33281
   128    C    5  S      Ryd( 3S)     0.00010       1.30945
   129    C    5  S      Ryd( 5S)     0.00000      21.90823
   130    C    5  px     Val( 2p)     1.00730      -0.14128
   131    C    5  px     Ryd( 3p)     0.00375       0.74750
   132    C    5  px     Ryd( 4p)     0.00054       1.30691
   133    C    5  py     Val( 2p)     1.06677      -0.09237
   134    C    5  py     Ryd( 3p)     0.00318       1.12652
   135    C    5  py     Ryd( 4p)     0.00076       1.42530
   136    C    5  pz     Val( 2p)     0.82408      -0.05627
   137    C    5  pz     Ryd( 3p)     0.00435       1.08342
   138    C    5  pz     Ryd( 4p)     0.00092       1.51670
   139    C    5  dxy    Ryd( 4d)     0.00038       3.13036
   140    C    5  dxy    Ryd( 3d)     0.00018       2.30663
   141    C    5  dxz    Ryd( 4d)     0.00078       3.17231
   142    C    5  dxz    Ryd( 3d)     0.00012       2.30807
   143    C    5  dyz    Ryd( 4d)     0.00049       3.84396
   144    C    5  dyz    Ryd( 3d)     0.00023       2.71529
   145    C    5  dx2y2  Ryd( 4d)     0.00030       3.47643
   146    C    5  dx2y2  Ryd( 3d)     0.00022       2.45955
   147    C    5  dz2    Ryd( 4d)     0.00062       3.97224
   148    C    5  dz2    Ryd( 3d)     0.00016       2.74540
   149    C    5  f(0)   Ryd( 4f)     0.00009       3.82876
   150    C    5  f(C1)  Ryd( 4f)     0.00005       3.43069
   151    C    5  f(S1)  Ryd( 4f)     0.00002       4.15211
   152    C    5  f(C2)  Ryd( 4f)     0.00009       3.65190
   153    C    5  f(S2)  Ryd( 4f)     0.00004       3.48108
   154    C    5  f(C3)  Ryd( 4f)     0.00011       3.46657
   155    C    5  f(S3)  Ryd( 4f)     0.00010       3.40379

   156    N    6  S      Cor( 1S)     1.99945     -14.21587
   157    N    6  S      Val( 2S)     1.34157      -0.55661
   158    N    6  S      Ryd( 3S)     0.00342       1.25661
   159    N    6  S      Ryd( 4S)     0.00012       3.78175
   160    N    6  S      Ryd( 5S)     0.00000      31.83336
   161    N    6  px     Val( 2p)     1.30367      -0.19979
   162    N    6  px     Ryd( 3p)     0.00553       0.71465
   163    N    6  px     Ryd( 4p)     0.00013       2.59887
   164    N    6  py     Val( 2p)     1.17717      -0.17644
   165    N    6  py     Ryd( 3p)     0.00799       1.03975
   166    N    6  py     Ryd( 4p)     0.00013       3.56072
   167    N    6  pz     Val( 2p)     1.50697      -0.21108
   168    N    6  pz     Ryd( 3p)     0.00959       1.49885
   169    N    6  pz     Ryd( 4p)     0.00027       3.56827
   170    N    6  dxy    Ryd( 3d)     0.00116       1.41310
   171    N    6  dxy    Ryd( 4d)     0.00022       4.74679
   172    N    6  dxz    Ryd( 3d)     0.00385       1.43391
   173    N    6  dxz    Ryd( 4d)     0.00005       4.75224
   174    N    6  dyz    Ryd( 3d)     0.00607       1.78379
   175    N    6  dyz    Ryd( 4d)     0.00014       5.07456
   176    N    6  dx2y2  Ryd( 3d)     0.00240       1.54164
   177    N    6  dx2y2  Ryd( 4d)     0.00013       4.85017
   178    N    6  dz2    Ryd( 3d)     0.00257       1.65125
   179    N    6  dz2    Ryd( 4d)     0.00022       4.92685
   180    N    6  f(0)   Ryd( 4f)     0.00007       4.69470
   181    N    6  f(C1)  Ryd( 4f)     0.00004       4.30071
   182    N    6  f(S1)  Ryd( 4f)     0.00004       4.93035
   183    N    6  f(C2)  Ryd( 4f)     0.00017       4.78169
   184    N    6  f(S2)  Ryd( 4f)     0.00009       4.64013
   185    N    6  f(C3)  Ryd( 4f)     0.00021       4.51081
   186    N    6  f(S3)  Ryd( 4f)     0.00020       4.52239

   187   Fe    7  S      Cor( 1S)     2.00000    -250.16772
   188   Fe    7  S      Cor( 2S)     1.99999     -34.94518
   189   Fe    7  S      Cor( 3S)     1.99277      -4.64096
   190   Fe    7  S      Val( 4S)     0.23158       0.43975
   191   Fe    7  S      Ryd( 5S)     0.00129       0.95294
   192   Fe    7  S      Ryd( 6S)     0.00007       2.10333
   193   Fe    7  px     Cor( 2p)     2.00000     -25.83791
   194   Fe    7  px     Cor( 3p)     1.99808      -2.24599
   195   Fe    7  px     Val( 4p)     0.20364       0.55695
   196   Fe    7  px     Ryd( 5p)     0.00016       2.46806
   197   Fe    7  py     Cor( 2p)     2.00000     -25.83858
   198   Fe    7  py     Cor( 3p)     1.99778      -2.24497
   199   Fe    7  py     Val( 4p)     0.20828       0.56731
   200   Fe    7  py     Ryd( 5p)     0.00019       2.44839
   201   Fe    7  pz     Cor( 2p)     2.00000     -25.84276
   202   Fe    7  pz     Cor( 3p)     1.99892      -2.26577
   203   Fe    7  pz     Val( 4p)     0.16176       0.40938
   204   Fe    7  pz     Ryd( 5p)     0.00089       1.68159
   205   Fe    7  dxy    Val( 3d)     0.94651      -0.10546
   206   Fe    7  dxy    Ryd( 4d)     0.00718       1.45621
   207   Fe    7  dxy    Ryd( 5d)     0.00059       2.26871
   208   Fe    7  dxy    Ryd( 6d)     0.00018       2.75677
   209   Fe    7  dxz    Val( 3d)     1.82958      -0.20336
   210   Fe    7  dxz    Ryd( 4d)     0.00681       0.62779
   211   Fe    7  dxz    Ryd( 5d)     0.00046       1.36300
   212   Fe    7  dxz    Ryd( 6d)     0.00012       3.42831
   213   Fe    7  dyz    Val( 3d)     1.83275      -0.20501
   214   Fe    7  dyz    Ryd( 4d)     0.00817       0.67470
   215   Fe    7  dyz    Ryd( 5d)     0.00042       1.41082
   216   Fe    7  dyz    Ryd( 6d)     0.00011       3.39918
   217   Fe    7  dx2y2  Val( 3d)     1.69813      -0.17247
   218   Fe    7  dx2y2  Ryd( 4d)     0.01123       1.26715
   219   Fe    7  dx2y2  Ryd( 5d)     0.00048       1.75855
   220   Fe    7  dx2y2  Ryd( 6d)     0.00017       2.92810
   221   Fe    7  dz2    Val( 3d)     0.49804      -0.08478
   222   Fe    7  dz2    Ryd( 4d)     0.00269       1.22303
   223   Fe    7  dz2    Ryd( 5d)     0.00125       2.01770
   224   Fe    7  dz2    Ryd( 6d)     0.00030       3.30327
   225   Fe    7  f(0)   Ryd( 4f)     0.00006       4.26565
   226   Fe    7  f(C1)  Ryd( 4f)     0.00003       4.33331
   227   Fe    7  f(S1)  Ryd( 4f)     0.00004       4.35610
   228   Fe    7  f(C2)  Ryd( 4f)     0.00001       4.20098
   229   Fe    7  f(S2)  Ryd( 4f)     0.00003       4.24593
   230   Fe    7  f(C3)  Ryd( 4f)     0.00007       4.46951
   231   Fe    7  f(S3)  Ryd( 4f)     0.00006       4.40931

   232    C    8  S      Cor( 1S)     1.99897     -10.05896
   233    C    8  S      Val( 2S)     0.95932      -0.20004
   234    C    8  S      Ryd( 3S)     0.00107       1.77231
   235    C    8  S      Ryd( 4S)     0.00060       4.09540
   236    C    8  S      Ryd( 5S)     0.00002      16.28825
   237    C    8  px     Val( 2p)     1.17192      -0.05190
   238    C    8  px     Ryd( 3p)     0.00231       1.01630
   239    C    8  px     Ryd( 4p)     0.00038       2.09143
   240    C    8  py     Val( 2p)     1.05908      -0.04694
   241    C    8  py     Ryd( 3p)     0.00176       1.00207
   242    C    8  py     Ryd( 4p)     0.00038       2.04995
   243    C    8  pz     Val( 2p)     1.04898      -0.10754
   244    C    8  pz     Ryd( 3p)     0.00359       0.55541
   245    C    8  pz     Ryd( 4p)     0.00025       1.57565
   246    C    8  dxy    Ryd( 3d)     0.00193       2.13633
   247    C    8  dxy    Ryd( 4d)     0.00020       3.78369
   248    C    8  dxz    Ryd( 3d)     0.00044       1.45361
   249    C    8  dxz    Ryd( 4d)     0.00009       2.92804
   250    C    8  dyz    Ryd( 3d)     0.00072       1.59316
   251    C    8  dyz    Ryd( 4d)     0.00013       3.10614
   252    C    8  dx2y2  Ryd( 3d)     0.00138       2.28680
   253    C    8  dx2y2  Ryd( 4d)     0.00023       3.96879
   254    C    8  dz2    Ryd( 3d)     0.00134       1.82454
   255    C    8  dz2    Ryd( 4d)     0.00006       3.42452
   256    C    8  f(0)   Ryd( 4f)     0.00024       3.47894
   257    C    8  f(C1)  Ryd( 4f)     0.00012       3.67933
   258    C    8  f(S1)  Ryd( 4f)     0.00010       4.00389
   259    C    8  f(C2)  Ryd( 4f)     0.00002       3.52810
   260    C    8  f(S2)  Ryd( 4f)     0.00003       3.56287
   261    C    8  f(C3)  Ryd( 4f)     0.00009       4.34309
   262    C    8  f(S3)  Ryd( 4f)     0.00008       4.33594

   263    C    9  S      Cor( 1S)     1.99897     -10.05690
   264    C    9  S      Val( 2S)     0.95451      -0.19473
   265    C    9  S      Ryd( 4S)     0.00088       1.57970
   266    C    9  S      Ryd( 3S)     0.00001       1.52927
   267    C    9  S      Ryd( 5S)     0.00000      21.40184
   268    C    9  px     Val( 2p)     1.05696      -0.04774
   269    C    9  px     Ryd( 3p)     0.00159       1.05728
   270    C    9  px     Ryd( 4p)     0.00030       1.98236
   271    C    9  py     Val( 2p)     1.15879      -0.05193
   272    C    9  py     Ryd( 3p)     0.00246       0.99977
   273    C    9  py     Ryd( 4p)     0.00037       1.86226
   274    C    9  pz     Val( 2p)     1.05442      -0.10610
   275    C    9  pz     Ryd( 3p)     0.00311       0.58995
   276    C    9  pz     Ryd( 4p)     0.00021       1.47620
   277    C    9  dxy    Ryd( 3d)     0.00200       2.14153
   278    C    9  dxy    Ryd( 4d)     0.00020       3.69783
   279    C    9  dxz    Ryd( 3d)     0.00095       1.68793
   280    C    9  dxz    Ryd( 4d)     0.00009       3.15620
   281    C    9  dyz    Ryd( 3d)     0.00050       1.56330
   282    C    9  dyz    Ryd( 4d)     0.00008       2.99787
   283    C    9  dx2y2  Ryd( 3d)     0.00104       2.26292
   284    C    9  dx2y2  Ryd( 4d)     0.00026       3.89205
   285    C    9  dz2    Ryd( 3d)     0.00105       1.77688
   286    C    9  dz2    Ryd( 4d)     0.00005       3.35682
   287    C    9  f(0)   Ryd( 4f)     0.00018       3.61859
   288    C    9  f(C1)  Ryd( 4f)     0.00013       3.89823
   289    C    9  f(S1)  Ryd( 4f)     0.00010       3.59911
   290    C    9  f(C2)  Ryd( 4f)     0.00005       3.68522
   291    C    9  f(S2)  Ryd( 4f)     0.00004       3.63612
   292    C    9  f(C3)  Ryd( 4f)     0.00007       4.22371
   293    C    9  f(S3)  Ryd( 4f)     0.00010       4.33586

   294    C   10  S      Cor( 1S)     1.99896     -10.04642
   295    C   10  S      Val( 2S)     0.94682      -0.18275
   296    C   10  S      Ryd( 3S)     0.00093       1.52768
   297    C   10  S      Ryd( 4S)     0.00061       2.24313
   298    C   10  S      Ryd( 5S)     0.00002      19.05848
   299    C   10  px     Val( 2p)     1.16526      -0.04464
   300    C   10  px     Ryd( 3p)     0.00237       1.07121
   301    C   10  px     Ryd( 4p)     0.00037       2.00838
   302    C   10  py     Val( 2p)     1.06308      -0.03919
   303    C   10  py     Ryd( 3p)     0.00179       1.06556
   304    C   10  py     Ryd( 4p)     0.00038       2.00419
   305    C   10  pz     Val( 2p)     1.03812      -0.10076
   306    C   10  pz     Ryd( 3p)     0.00302       0.57933
   307    C   10  pz     Ryd( 4p)     0.00025       1.48935
   308    C   10  dxy    Ryd( 3d)     0.00184       2.19230
   309    C   10  dxy    Ryd( 4d)     0.00019       3.74478
   310    C   10  dxz    Ryd( 3d)     0.00041       1.48140
   311    C   10  dxz    Ryd( 4d)     0.00009       2.88144
   312    C   10  dyz    Ryd( 3d)     0.00081       1.70570
   313    C   10  dyz    Ryd( 4d)     0.00007       3.16625
   314    C   10  dx2y2  Ryd( 3d)     0.00130       2.34725
   315    C   10  dx2y2  Ryd( 4d)     0.00026       3.96669
   316    C   10  dz2    Ryd( 3d)     0.00123       1.86677
   317    C   10  dz2    Ryd( 4d)     0.00004       3.41171
   318    C   10  f(0)   Ryd( 4f)     0.00022       3.54868
   319    C   10  f(C1)  Ryd( 4f)     0.00009       3.75493
   320    C   10  f(S1)  Ryd( 4f)     0.00014       3.94609
   321    C   10  f(C2)  Ryd( 4f)     0.00002       3.63633
   322    C   10  f(S2)  Ryd( 4f)     0.00003       3.60887
   323    C   10  f(C3)  Ryd( 4f)     0.00009       4.36128
   324    C   10  f(S3)  Ryd( 4f)     0.00008       4.34869

   325    C   11  S      Cor( 1S)     1.99896     -10.04343
   326    C   11  S      Val( 2S)     0.94676      -0.18171
   327    C   11  S      Ryd( 3S)     0.00087       1.55548
   328    C   11  S      Ryd( 4S)     0.00001       1.62529
   329    C   11  S      Ryd( 5S)     0.00000      21.27746
   330    C   11  px     Val( 2p)     1.06231      -0.03913
   331    C   11  px     Ryd( 3p)     0.00151       1.11293
   332    C   11  px     Ryd( 4p)     0.00033       1.99580
[...]
  1630. RY*(   1) H  78                  0.00108     0.88077   
  1631. RY*(   2) H  78                  0.00016     1.81505   
  1632. RY*(   3) H  78                  0.00006     2.20961   
  1633. RY*(   4) H  78                  0.00004     2.03586   
  1634. RY*(   5) H  78                  0.00001     2.89964   
  1635. RY*(   1) H  79                  0.00121     1.14803   
  1636. RY*(   2) H  79                  0.00037     1.54074   
  1637. RY*(   3) H  79                  0.00010     2.21963   
  1638. RY*(   4) H  79                  0.00004     2.32613   
  1639. RY*(   5) H  79                  0.00001     2.93044   
  1640. RY*(   1) H  80                  0.00183     1.06127   
  1641. RY*(   2) H  80                  0.00040     1.66852   
  1642. RY*(   3) H  80                  0.00008     2.20095   
  1643. RY*(   4) H  80                  0.00005     2.32053   
  1644. RY*(   5) H  80                  0.00001     2.95207   
  1645. RY*(   1) H  81                  0.00145     1.57732   
  1646. RY*(   2) H  81                  0.00020     1.83200   
  1647. RY*(   3) H  81                  0.00010     2.49132   
  1648. RY*(   4) H  81                  0.00005     2.18292   
  1649. RY*(   5) H  81                  0.00001     3.08561   
  1650. RY*(   1) H  82                  0.00047     1.42681   
  1651. RY*(   2) H  82                  0.00019     1.90622   
  1652. RY*(   3) H  82                  0.00006     2.13397   
  1653. RY*(   4) H  82                  0.00001     2.54568   
  1654. RY*(   5) H  82                  0.00002     2.18642   
  1655. RY*(   1) H  83                  0.00075     0.95220   
  1656. RY*(   2) H  83                  0.00017     1.92841   
  1657. RY*(   3) H  83                  0.00010     1.93080   
  1658. RY*(   4) H  83                  0.00006     2.19489   
  1659. RY*(   5) H  83                  0.00001     3.00839   
  1660. RY*(   1) H  84                  0.00095     1.02393   
  1661. RY*(   2) H  84                  0.00017     1.70046   
  1662. RY*(   3) H  84                  0.00007     2.15704   
  1663. RY*(   4) H  84                  0.00003     2.01954   
  1664. RY*(   5) H  84                  0.00001     2.96270   
  1665. RY*(   1) H  85                  0.00274     0.77575   
  1666. RY*(   2) H  85                  0.00029     2.17297   
  1667. RY*(   3) H  85                  0.00026     2.26718   
  1668. RY*(   4) H  85                  0.00013     3.10306   
  1669. RY*(   5) H  85                  0.00001     3.31204   
  1670. RY*(   1) H  86                  0.00068     1.46121   
  1671. RY*(   2) H  86                  0.00025     1.63291   
  1672. RY*(   3) H  86                  0.00012     2.46902   
  1673. RY*(   4) H  86                  0.00008     2.18667   
  1674. RY*(   5) H  86                  0.00001     3.10735   
  1675. RY*(   1) H  87                  0.00080     1.05681   
  1676. RY*(   2) H  87                  0.00027     1.77069   
  1677. RY*(   3) H  87                  0.00019     2.14201   
  1678. RY*(   4) H  87                  0.00007     2.44773   
  1679. RY*(   5) H  87                  0.00001     3.07733   
  1680. RY*(   1) H  88                  0.00048     1.38916   
  1681. RY*(   2) H  88                  0.00028     1.11674   
  1682. RY*(   3) H  88                  0.00016     2.11521   
  1683. RY*(   4) H  88                  0.00006     2.54603   
  1684. RY*(   5) H  88                  0.00001     3.07945   
  1709. BD*(   1) C   8 - C  13          0.02025     0.53523   
  1710. BD*(   2) C   8 - C  13          0.43091     0.03487  1783(v),1730(v),1727(v)
                                                    377(g),509(g),511(g),1715(r)
  1711. BD*(   1) C   8 - C  43          0.01880     0.56858   
  1712. BD*(   1) C   8 - H  70          0.01313     0.45322   
  1713. BD*(   1) C   9 - C  16          0.02218     0.54652   
  1714. BD*(   1) C   9 - C  24          0.01979     0.57383   
  1715. BD*(   2) C   9 - C  24          0.42421     0.04526  1752(v),1749(v),1727(v)
                                                    1719(r),403(g),795(g)
                                                    1710(r)
  1716. BD*(   1) C   9 - H  74          0.01513     0.45279   
  1717. BD*(   1) C  10 - C  27          0.01999     0.59145   
  1718. BD*(   1) C  10 - C  32          0.02239     0.56775   
  1719. BD*(   2) C  10 - C  32          0.39533     0.04465  1749(v),1769(v),1766(v)
                                                    1715(r),429(g),1723(r)
                                                    1005(g),1760(r),1701(r)
                                                    179(r)
  1720. BD*(   1) C  10 - H  85          0.01614     0.45578   
  1721. BD*(   1) C  11 - C  35          0.02416     0.56218   
  1722. BD*(   1) C  11 - C  40          0.02009     0.60249   
  1723. BD*(   2) C  11 - C  40          0.40048     0.05164  1786(v),1766(v),1783(v)
                                                    455(g),1719(r),1211(g)
                                                    1777(r),1213(g)
  1724. BD*(   1) C  11 - H  75          0.01487     0.45350   
  1725. BD*(   1) N  12 - C  13          0.02825     0.43479   
  1726. BD*(   1) N  12 - C  16          0.02789     0.44406   
  1727. BD*(   2) N  12 - C  16          0.65787    -0.01046  1715(v),1730(v),1710(v)
                                                    587(g),179(r),481(g),403(v)
                                                    589(g),1708(r),176(r),175(r)
  1728. BD*(   1) C  13 - C  14          0.03322     0.45508   
  1729. BD*(   1) C  14 - C  15          0.01995     0.60371   
  1730. BD*(   2) C  14 - C  15          0.26572     0.05865  1710(v),1727(v),1737(v)
                                                    1735(v),1734(v),1738(v)
  1731. BD*(   1) C  14 - C  18          0.02546     0.36476   
  1732. BD*(   1) C  15 - C  16          0.03329     0.47312   
  1733. BD*(   1) C  15 - C  17          0.01845     0.35340   
  1734. BD*(   1) C  17 - H  71          0.00798     0.39763   
  1735. BD*(   1) C  17 - H  72          0.00883     0.39335   
  1736. BD*(   1) C  17 - H  73          0.00492     0.40512   
  1737. BD*(   1) C  18 - C  19          0.01706     0.31551   
  1738. BD*(   1) C  18 - H  60          0.01305     0.40405   
  1739. BD*(   1) C  18 - H  61          0.01232     0.40981   
  1740. BD*(   1) C  19 - C  20          0.07100     0.38087   
  1741. BD*(   1) C  19 - H  58          0.01084     0.39018   
  1742. BD*(   1) C  19 - H  59          0.01447     0.37278   
  1743. BD*(   1) C  20 - O  21          0.09195     0.41086   
  1744. BD*(   2) C  20 - O  21          0.20726     0.14398  1743(g),1737(v),718(g)
                                                    1746(v),1742(v),705(g)
  1745. BD*(   1) C  20 - O  22          0.06912     0.55463   
  1746. BD*(   1) O  22 - H  57          0.01457     0.35202   
  1747. BD*(   1) N  23 - C  24          0.02535     0.51169   
  1748. BD*(   1) N  23 - C  27          0.02425     0.52912   
  1749. BD*(   2) N  23 - C  27          0.55548     0.02093  1719(v),1715(v),1752(v)
                                                    873(g),767(g),179(r),1701(r)
  1750. BD*(   1) C  24 - C  25          0.03448     0.47915   
  1751. BD*(   1) C  25 - C  26          0.01948     0.62662   
  1752. BD*(   2) C  25 - C  26          0.30456     0.06838  1715(v),1760(v),1749(v)
                                                    1758(v),1757(v)
  1753. BD*(   1) C  25 - C  28          0.01855     0.34824   
  1754. BD*(   1) C  26 - C  27          0.03613     0.46503   
  1755. BD*(   1) C  26 - C  29          0.02810     0.41024   
  1756. BD*(   1) C  28 - H  76          0.00655     0.42071   
  1757. BD*(   1) C  28 - H  77          0.00777     0.41448   
  1758. BD*(   1) C  28 - H  78          0.00788     0.41575   
  1759. BD*(   1) C  29 - C  30          0.00571     0.60187   
  1760. BD*(   2) C  29 - C  30          0.14520     0.03052  1752(v),1761(g),1762(g)
                                                    1763(g),1755(g)
  1761. BD*(   1) C  29 - H  81          0.01955     0.43624   
  1762. BD*(   1) C  30 - H  79          0.00761     0.43514   
  1763. BD*(   1) C  30 - H  80          0.00794     0.43456   
  1764. BD*(   1) N  31 - C  32          0.02861     0.44052   
  1765. BD*(   1) N  31 - C  35          0.02838     0.47265   
  1766. BD*(   2) N  31 - C  35          0.60743     0.00167  1723(v),1769(v),1719(v)
                                                    1081(g),975(g),179(r),455(v)
                                                    174(r),1705(r),176(r)
                                                    1701(r)
  1767. BD*(   1) C  32 - C  33          0.03398     0.45327   
  1768. BD*(   1) C  33 - C  34          0.02025     0.60940   
  1769. BD*(   2) C  33 - C  34          0.26926     0.06458  1719(v),1777(v),1766(v)
                                                    1775(v),1774(v)
  1770. BD*(   1) C  33 - C  36          0.01743     0.38820   
  1771. BD*(   1) C  34 - C  35          0.03081     0.48819   
  1772. BD*(   1) C  34 - C  37          0.03085     0.37438   
  1773. BD*(   1) C  36 - H  82          0.00622     0.41451   
  1774. BD*(   1) C  36 - H  83          0.00816     0.40898   
  1775. BD*(   1) C  36 - H  84          0.00946     0.40704   
  1776. BD*(   1) C  37 - C  38          0.00502     0.58925   
  1777. BD*(   2) C  37 - C  38          0.05510     0.04022   
  1778. BD*(   1) C  37 - H  86          0.01479     0.44768   
  1779. BD*(   1) C  38 - H  87          0.01056     0.44332   
  1780. BD*(   1) C  38 - H  88          0.00849     0.44294   
  1781. BD*(   1) N  39 - C  40          0.02831     0.47787   
  1782. BD*(   1) N  39 - C  43          0.02727     0.46331   
  1783. BD*(   2) N  39 - C  43          0.63965    -0.00157  1710(v),1786(v),1723(v)
                                                    1289(g),1183(g),179(r)
                                                    377(v),1291(g),1707(r)
  1784. BD*(   1) C  40 - C  41          0.03489     0.48313   
  1785. BD*(   1) C  41 - C  42          0.01863     0.62656   
  1786. BD*(   2) C  41 - C  42          0.22829     0.07265  1723(v),1783(v),1793(v)
                                                    1790(v),1795(v)
  1787. BD*(   1) C  41 - C  44          0.01837     0.35608   
  1788. BD*(   1) C  42 - C  43          0.03467     0.45933   
  1789. BD*(   1) C  42 - C  45          0.02405     0.37675   
  1790. BD*(   1) C  44 - H  67          0.00894     0.40852   
  1791. BD*(   1) C  44 - H  68          0.00597     0.41490   
  1792. BD*(   1) C  44 - H  69          0.00595     0.41651   
  1793. BD*(   1) C  45 - C  46          0.01611     0.33668   
  1794. BD*(   1) C  45 - H  62          0.01186     0.41667   
  1795. BD*(   1) C  45 - H  63          0.01383     0.41875   
  1796. BD*(   1) C  46 - C  47          0.07509     0.36434   
  1797. BD*(   1) C  46 - H  64          0.01473     0.38713   
  1798. BD*(   1) C  46 - H  65          0.01218     0.40564   
  1799. BD*(   1) C  47 - O  48          0.07265     0.52586   
  1800. BD*(   1) C  47 - O  49          0.06629     0.50037   
  1801. BD*(   2) C  47 - O  49          0.19775     0.09983  1800(g),1793(v),1802(v)
                                                    1446(g),1797(v),1401(g)
  1802. BD*(   1) O  48 - H  66          0.01396     0.36887   
       -------------------------------
              Total Lewis  288.61032  ( 97.2518%)
        Valence non-Lewis    7.54013  (  2.5408%)
        Rydberg non-Lewis    0.61568  (  0.2075%)
       -------------------------------
            Total unit  3  296.76613  (100.0000%)
           Charge unit  3   -0.76613

 Molecular unit  4  (H2O)
   109. BD (   1) O  50 - H  89          1.99494    -0.78891  179(r),176(r),351(r),175(r)
                                                    352(r),979(r),353(r),355(r)
                                                    324(r),326(r)
   110. BD (   1) O  50 - H  90          1.98853    -0.79224  179(r),176(r),175(r),352(r)
                                                    1687(v),178(r),351(r),177(r)
                                                    354(r),771(r),356(r),353(r)
                                                    325(r),769(r)
   168. CR (   1) O  50                  1.99984   -19.02109  179(r),176(r),1687(v)
                                                    1692(v),175(r)
   192. LP (   1) O  50                  1.99186    -0.48302  179(r),1685(v),1691(v)
                                                    176(r),177(r),178(r),353(r)
                                                    175(r),354(r),1183(r),327(r)
                                                    356(r),481(r),357(r),326(r)
                                                    350(r)
   193. LP (   2) O  50                  1.84796    -0.48969  179(r),176(r),175(r),1804(g)
                                                    1686(v),1692(v),1690(v)
                                                    353(r),356(r),178(r),177(r)
                                                    357(r),354(r),1183(r),484(r)
                                                    174(r),1186(r),977(r),358(r)
                                                    327(r),975(r),769(r),978(r)
                                                    767(r),483(r),481(r),1764(r)
                                                    1726(r),1185(r),324(r)
                                                    1765(r),1725(r),1748(r)
  1469. RY*(   1) O  50                  0.00134     0.74869   
  1470. RY*(   2) O  50                  0.00107     0.76039   
  1471. RY*(   3) O  50                  0.00034     1.44010   
  1472. RY*(   4) O  50                  0.00013     1.19323   
  1473. RY*(   5) O  50                  0.00005     2.88119   
  1474. RY*(   6) O  50                  0.00005     2.17253   
  1475. RY*(   7) O  50                  0.00003     3.62005   
  1476. RY*(   8) O  50                  0.00001     3.01915   
  1477. RY*(   9) O  50                  0.00000     4.66362   
  1478. RY*(  10) O  50                  0.00001     2.71761   
  1479. RY*(  11) O  50                  0.00001     2.37095   
  1480. RY*(  12) O  50                  0.00000    41.33972   
  1481. RY*(  13) O  50                  0.00000     6.43622   
  1482. RY*(  14) O  50                  0.00001     3.36104   
  1483. RY*(  15) O  50                  0.00000     6.46712   
  1484. RY*(  16) O  50                  0.00000     6.48589   
  1485. RY*(  17) O  50                  0.00000     6.34532   
  1486. RY*(  18) O  50                  0.00001     2.38491   
  1487. RY*(  19) O  50                  0.00000     6.42529   
  1488. RY*(  20) O  50                  0.00000     5.34955   
  1489. RY*(  21) O  50                  0.00000     5.25007   
  1490. RY*(  22) O  50                  0.00000     5.41218   
  1491. RY*(  23) O  50                  0.00000     5.31465   
  1492. RY*(  24) O  50                  0.00000     5.54981   
  1493. RY*(  25) O  50                  0.00000     5.59453   
  1494. RY*(  26) O  50                  0.00000     5.39801   
  1685. RY*(   1) H  89                  0.00090     1.73519   
  1686. RY*(   2) H  89                  0.00077     1.91012   
  1687. RY*(   3) H  89                  0.00044     2.24066   
  1688. RY*(   4) H  89                  0.00020     1.38825   
  1689. RY*(   5) H  89                  0.00000     2.86860   
  1690. RY*(   1) H  90                  0.00149     0.79490   
  1691. RY*(   2) H  90                  0.00087     2.01704   
  1692. RY*(   3) H  90                  0.00057     2.38644   
  1693. RY*(   4) H  90                  0.00021     2.00950   
  1694. RY*(   5) H  90                  0.00001     2.84202   
  1803. BD*(   1) O  50 - H  89          0.00204     0.44223   
  1804. BD*(   1) O  50 - H  90          0.00353     0.43371   
       -------------------------------
              Total Lewis    9.82314  ( 99.8567%)
        Valence non-Lewis    0.00557  (  0.0566%)
        Rydberg non-Lewis    0.00853  (  0.0867%)
       -------------------------------
            Total unit  4    9.83724  (100.0000%)
           Charge unit  4    0.16276
 1\1\GINC-NODE486\SP\RPBE1PBE\def2TZVP\C38H40Fe1N6O5\ZHARTOVSKA\21-Oct-
 2022\0\\# PBE1PBE/def2TZVP empiricaldispersion=GD3BJ int=(grid=ultrafi
 ne) geom=check guess=read pop=nbo scf=qc\\1flp_II_S_nbo\\0,1\C,0,1.855
 ,1.103,19.240999\C,0,2.991,1.833,18.511\N,0,4.255,2.041,19.082001\C,0,
 2.925,2.479,17.308001\C,0,4.985,2.723,18.195\N,0,4.18,3.017,17.136\Fe,
 0,4.822,4.251,15.293\C,0,5.474,6.932,17.278\C,0,8.116,3.228,15.537\C,0
 ,4.14,1.437,13.497\C,0,1.664,5.303,14.788\N,0,6.373,4.842,16.259001\C,
 0,6.512,6.009,17.037001\C,0,7.835,6.061,17.683001\C,0,8.575,5.051,17.1
 73\C,0,7.663,4.299,16.323\C,0,10.043,4.728,17.514\C,0,8.251,7.045,18.7
 88\C,0,8.136,6.433,20.212999\C,0,6.73,6.452,20.652\O,0,6.199,7.559,20.
 885\O,0,6.081,5.431,20.542999\N,0,5.963,2.657,14.516\C,0,7.302,2.468,1
 4.716\C,0,7.7,1.232,14.055\C,0,6.58,0.688,13.53\C,0,5.456,1.576,13.874
 \C,0,9.209,0.834,14.054\C,0,6.244,-0.593,12.799\C,0,7.076,-1.634,12.51
 \N,0,3.336,3.613,14.298\C,0,3.125,2.374,13.672\C,0,1.777,2.16,13.11\C,
 0,1.108,3.283,13.455\C,0,2.042,4.087,14.214\C,0,1.335,1.01,12.233\C,0,
 -0.344,3.747,13.175\C,0,-1.31282067,2.8313389,12.93103628\N,0,3.804,5.
 821,15.858\C,0,2.479,6.085,15.559\C,0,2.065,7.359,16.128\C,0,3.103,7.8
 06,16.854\C,0,4.228,6.869,16.673\C,0,0.692,8.021,15.841\C,0,3.184,9.20
 6,17.483999\C,0,3.407,10.303,16.416\C,0,3.506,11.672,17.031\O,0,4.595,
 12.015,17.506001\O,0,2.468,12.316,17.226999\O,0,5.495,5.394,13.439\H,0
 ,2.17861909,0.83286919,20.22446228\H,0,1.00347556,1.7472287,19.3101040
 3\H,0,1.59104733,0.22004968,18.69728242\H,0,4.55442559,1.73536294,19.9
 8584297\H,0,6.01600364,2.99013895,18.29780208\H,0,2.0857576,2.55034434
 ,16.64809026\H,0,6.5273177,4.58586112,20.45277277\H,0,8.72914317,7.005
 818,20.89487928\H,0,8.48949828,5.42322521,20.19585707\H,0,9.26531927,7
 .34203084,18.62117941\H,0,7.62419648,7.91043403,18.73285222\H,0,3.9955
 1909,9.22809574,18.18102737\H,0,2.2712407,9.40712235,18.00488311\H,0,4
 .31236323,10.09343767,15.88562178\H,0,2.5885155,10.28938181,15.7269443
 7\H,0,5.41161003,11.71951972,17.09680733\H,0,0.78269163,8.6821484,15.0
 0460427\H,0,-0.03014099,7.26304304,15.61983574\H,0,0.37627532,8.574494
 09,16.70057095\H,0,5.65861365,7.72818761,17.9685817\H,0,10.648935,5.59
 167875,17.3356694\H,0,10.11647011,4.44723524,18.54388994\H,0,10.382702
 55,3.92085456,16.89916798\H,0,9.15705465,2.98376951,15.57516663\H,0,0.
 6661989,5.64698074,14.61201644\H,0,9.77668028,1.58653189,14.56029521\H
 ,0,9.33106532,-0.10298755,14.55605019\H,0,9.5538728,0.74557419,13.0449
 6897\H,0,7.40195976,-1.79489651,11.50363896\H,0,7.40289654,-2.28995872
 ,13.28958759\H,0,5.23127752,-0.69450999,12.46886534\H,0,2.06625877,0.2
 2986669,12.27240342\H,0,0.3952526,0.63594848,12.58208492\H,0,1.2307556
 9,1.35051315,11.22399856\H,0,3.86965028,0.51712783,13.02197767\H,0,-0.
 58151903,4.79030448,13.17431145\H,0,-1.09720009,1.78722159,13.02173802
 \H,0,-2.29337467,3.15249472,12.64771176\H,0,6.34633133,5.83766088,13.4
 39\H,0,4.79293541,6.04875591,13.439\\Version=ES64L-G16RevA.03\State=1-
 A\HF=-3438.5965425\RMSD=1.063e-09\Dipole=1.6710735,-2.5360079,0.701294
 6\Quadrupole=22.254469,-27.9654633,5.7109943,25.6545344,13.6708712,-37
 .6549385\PG=C01 [X(C38H40Fe1N6O5)]\\@


 BLACK HOLES SUCK.
 Job cpu time:       0 days  2 hours 12 minutes 26.0 seconds.
 Elapsed time:       0 days  0 hours 33 minutes 14.0 seconds.
 File lengths (MBytes):  RWF=   1097 Int=      0 D2E=      0 Chk=    213 Scr=      1
 Normal termination of Gaussian 16 at Fri Oct 21 14:58:54 2022.
