 Entering Gaussian System, Link 0=g16
 Input=/homes2/chemie/zhartovska/work/BioModel/Konrad/1giw/1giw12/1giw16/1giw16.com
 Output=/homes2/chemie/zhartovska/work/BioModel/Konrad/1giw/1giw12/1giw16/1giw16.log
 Initial command:
 /afs/math/software/gaussian/g16.A03/g16/l1.exe "/scratch/zhartovska_gaussian.PxGdjBY/Gau-6901.inp" -scrdir="/scratch/zhartovska_gaussian.PxGdjBY/"
 Entering Link 1 = /afs/math/software/gaussian/g16.A03/g16/l1.exe PID=      6902.
  
 Copyright (c) 1988,1990,1992,1993,1995,1998,2003,2009,2016,
            Gaussian, Inc.  All Rights Reserved.
  
 This is part of the Gaussian(R) 16 program.  It is based on
 the Gaussian(R) 09 system (copyright 2009, Gaussian, Inc.),
 the Gaussian(R) 03 system (copyright 2003, Gaussian, Inc.),
 the Gaussian(R) 98 system (copyright 1998, Gaussian, Inc.),
 the Gaussian(R) 94 system (copyright 1995, Gaussian, Inc.),
 the Gaussian 92(TM) system (copyright 1992, Gaussian, Inc.),
 the Gaussian 90(TM) system (copyright 1990, Gaussian, Inc.),
 the Gaussian 88(TM) system (copyright 1988, Gaussian, Inc.),
 the Gaussian 86(TM) system (copyright 1986, Carnegie Mellon
 University), and the Gaussian 82(TM) system (copyright 1983,
 Carnegie Mellon University). Gaussian is a federally registered
 trademark of Gaussian, Inc.
  
 This software contains proprietary and confidential information,
 including trade secrets, belonging to Gaussian, Inc.
  
 This software is provided under written license and may be
 used, copied, transmitted, or stored only in accord with that
 written license.
  
 The following legend is applicable only to US Government
 contracts under FAR:
  
                    RESTRICTED RIGHTS LEGEND
  
 Use, reproduction and disclosure by the US Government is
 subject to restrictions as set forth in subparagraphs (a)
 and (c) of the Commercial Computer Software - Restricted
 Rights clause in FAR 52.227-19.
  
 Gaussian, Inc.
 340 Quinnipiac St., Bldg. 40, Wallingford CT 06492
  
  
 ---------------------------------------------------------------
 Warning -- This program may not be used in any manner that
 competes with the business of Gaussian, Inc. or will provide
 assistance to any competitor of Gaussian, Inc.  The licensee
 of this program is prohibited from giving any competitor of
 Gaussian, Inc. access to this program.  By using this program,
 the user acknowledges that Gaussian, Inc. is engaged in the
 business of creating and licensing software in the field of
 computational chemistry and represents and warrants to the
 licensee that it is not a competitor of Gaussian, Inc. and that
 it will not use this program in any manner prohibited above.
 ---------------------------------------------------------------
  

 Cite this work as:
 Gaussian 16, Revision A.03,
 M. J. Frisch, G. W. Trucks, H. B. Schlegel, G. E. Scuseria, 
 M. A. Robb, J. R. Cheeseman, G. Scalmani, V. Barone, 
 G. A. Petersson, H. Nakatsuji, X. Li, M. Caricato, A. V. Marenich, 
 J. Bloino, B. G. Janesko, R. Gomperts, B. Mennucci, H. P. Hratchian, 
 J. V. Ortiz, A. F. Izmaylov, J. L. Sonnenberg, D. Williams-Young, 
 F. Ding, F. Lipparini, F. Egidi, J. Goings, B. Peng, A. Petrone, 
 T. Henderson, D. Ranasinghe, V. G. Zakrzewski, J. Gao, N. Rega, 
 G. Zheng, W. Liang, M. Hada, M. Ehara, K. Toyota, R. Fukuda, 
 J. Hasegawa, M. Ishida, T. Nakajima, Y. Honda, O. Kitao, H. Nakai, 
 T. Vreven, K. Throssell, J. A. Montgomery, Jr., J. E. Peralta, 
 F. Ogliaro, M. J. Bearpark, J. J. Heyd, E. N. Brothers, K. N. Kudin, 
 V. N. Staroverov, T. A. Keith, R. Kobayashi, J. Normand, 
 K. Raghavachari, A. P. Rendell, J. C. Burant, S. S. Iyengar, 
 J. Tomasi, M. Cossi, J. M. Millam, M. Klene, C. Adamo, R. Cammi, 
 J. W. Ochterski, R. L. Martin, K. Morokuma, O. Farkas, 
 J. B. Foresman, and D. J. Fox, Gaussian, Inc., Wallingford CT, 2016.
 
 ******************************************
 Gaussian 16:  ES64L-G16RevA.03 25-Dec-2016
                 9-Feb-2023 
 ******************************************
 %nprocs=12
 Will use up to   12 processors via shared memory.
 %mem=16GB
 %oldchk=1giw_III_D.chk
 %chk=1giw_III_H.chk
 Copying data from "1giw_III_D.chk" to current chk file "1giw_III_H.chk"
 IOpt=  2 FromEx=T IUOpen= 4 IOptOp= 5 NList=   0 IFRang= 0 IUIn= 4 IUOut= 2.
 ----------------------------------------------------------------------
 # PBE1PBE/def2TZVP empiricaldispersion=GD3BJ scf=maxcycle=999 geom=che
 ck pop=nbo
 ----------------------------------------------------------------------
 1/29=2,38=1,172=1/1;
 2/12=2,40=1/2;
 3/5=44,7=101,11=2,14=-4,25=1,30=1,74=-13,124=41/1,2,3;
 4//1;
 5/5=2,7=999,38=5/2;
 6/7=2,8=2,9=2,10=2,28=1,40=1/1,7;
 99/5=1,9=1/99;
 ----------
 1giw_III_H
 ----------
 Structure from the checkpoint file:  "1giw_III_H.chk"
 Charge =  1 Multiplicity = 6
 Z-Matrix found in chk file.
 C,0,5.285,0.862,3.984
 C,0,4.799,-0.427,3.422
 N,0,5.026,-0.844,2.137
 C,0,3.769,-1.16,3.94
 C,0,4.151,-1.824,1.891
 N,0,3.39,-2.086,2.957
 H,0,4.65166542,1.15953457,4.79348162
 H,0,5.26640282,1.61292395,3.22198467
 H,0,5.601,-0.378,1.441
 H,0,3.257,-0.899,4.862
 H,0,3.971,-2.247,0.924
 C,0,0.724,-7.635,2.833
 C,0,0.225,-6.409,3.595
 S,0,0.198,-4.923,2.561
 C,0,-1.469,-4.256,2.806
 H,0,1.26915186,-7.3197744,1.96793222
 H,0,-0.11135027,-8.23128457,2.53045309
 H,0,-0.778,-6.628,3.96
 H,0,0.847,-6.198,4.461
 H,0,-2.22,-5.016,2.575
 H,0,-1.569,-3.923,3.84
 H,0,-1.62,-3.414,2.132
 Fe,0,1.858,-3.275,2.887
 C,0,2.674,-4.473,-0.34
 C,0,0.073,-0.716,1.547
 C,0,1.07,-2.363,6.088
 C,0,3.89,-5.832,4.197
 N,0,1.404,-2.725,0.936
 C,0,1.865,-3.333,-0.213
 C,0,1.406,-2.533,-1.327
 C,0,0.628,-1.512,-0.813
 C,0,0.675,-1.609,0.635
 C,0,-0.163,-0.519,-1.642
 C,0,1.713,-2.768,-2.797
 C,0,3.201,-2.881,-3.165
 C,0,3.513,-2.344,-4.557
 O,0,3.415,-3.144,-5.515
 O,0,3.826,-1.139,-4.647
 N,0,0.762,-1.819,3.679
 C,0,0.126,-0.863,2.951
 C,0,-0.472,0.047,3.902
 C,0,-0.266,-0.461,5.172
 C,0,0.569,-1.622,5.019
 C,0,-1.079,1.375,3.547
 C,0,-0.868,0.004,6.491
 C,0,-2.395,-0.063,6.487
 N,0,2.372,-3.978,4.79
 C,0,1.935,-3.42,5.936
 C,0,2.556,-4.102,7.04
 C,0,3.459,-4.99,6.504
 C,0,3.241,-4.986,5.076
 C,0,2.331,-3.784,8.496
 C,0,4.659,-5.6,7.203
 C,0,4.337,-6.8,8.094
 N,0,3.058,-4.887,2.071
 C,0,3.771,-5.771,2.818
 C,0,4.435,-6.685,1.923
 C,0,4.106,-6.314,0.641
 C,0,3.221,-5.166,0.743
 C,0,5.364,-7.806,2.326
 C,0,4.622,-6.977,-0.621
 C,0,3.517,-7.523,-1.531
 C,0,3.354,-9.044,-1.541
 O,0,4.353,-9.799,-1.486
 O,0,2.179,-9.441,-1.66
 H,0,2.913,-4.826,-1.326
 H,0,-0.471,0.128,1.159
 H,0,0.852,-2.078,7.1
 H,0,4.493,-6.617,4.614
 H,0,-0.97,-1.043,-2.157
 H,0,-0.6,0.28,-1.045
 H,0,0.488,-0.068,-2.388
 H,0,1.22,-3.686,-3.104
 H,0,1.297,-1.944,-3.374
 H,0,3.77,-2.302,-2.445
 H,0,3.532,-3.919,-3.16
 H,0,-1.948,1.251,2.902
 H,0,-1.368,1.901,4.448
 H,0,-0.321,1.959,3.03
 H,0,-0.578,-0.645,7.307
 H,0,-2.703,-1.095,6.318
 H,0,-2.781,0.282,7.445
 H,0,-2.801,0.55,5.691
 H,0,1.267,-3.871,8.716
 H,0,2.883,-4.463,9.139
 H,0,2.661,-2.765,8.696
 H,0,5.351,-5.968,6.456
 H,0,3.958,-7.604,7.464
 H,0,5.248,-7.136,8.588
 H,0,3.593,-6.543,8.845
 H,0,5.044,-8.257,3.264
 H,0,5.373,-8.586,1.575
 H,0,6.372,-7.413,2.438
 H,0,5.216,-6.254,-1.179
 H,0,5.304,-7.788,-0.385
 H,0,2.564,-7.102,-1.212
 H,0,3.703,-7.192,-2.552
 H,0,1.36378352,-8.21284152,3.46677932
 H,0,6.28645359,0.74056542,4.34071327
 H,0,4.20625982,-3.49243655,-5.93225277
 H,0,5.23768535,-9.42724948,-1.51308116
 Recover connectivity data from disk.
 Stoichiometry    C41H48FeN6O4S(1+,6)
 Framework group  C1[X(C41H48FeN6O4S)]
 Deg. of freedom   297
 Full point group                 C1      NOp   1
 Largest Abelian subgroup         C1      NOp   1
 Largest concise Abelian subgroup C1      NOp   1
                         Standard orientation:                         
 ---------------------------------------------------------------------
 Center     Atomic      Atomic             Coordinates (Angstroms)
 Number     Number       Type             X           Y           Z
 ---------------------------------------------------------------------
      1          6           0        2.528443   -2.047617    4.741988
      2          6           0        1.672587   -1.350763    3.744258
      3          7           0        0.308024   -1.457780    3.688063
      4          6           0        2.117944   -0.854803    2.551700
      5          6           0       -0.062201   -1.019609    2.480801
      6          7           0        0.985248   -0.605338    1.762921
      7          1           0        3.513208   -2.171835    4.342353
      8          1           0        2.109575   -3.007094    4.963015
      9          1           0       -0.288915   -1.952203    4.344879
     10          1           0        3.163733   -0.861097    2.257362
     11          1           0       -1.047237   -1.123663    2.074236
     12          6           0       -0.487907    3.160856   -2.880346
     13          6           0        0.753236    2.274983   -2.793670
     14         16           0        0.351412    0.576924   -2.310745
     15          6           0        1.193991   -0.437063   -3.554004
     16          1           0       -1.284767    2.713833   -2.323493
     17          1           0       -0.781974    3.263625   -3.903998
     18          1           0        1.236634    2.280849   -3.770136
     19          1           0        1.469716    2.662646   -2.074132
     20          1           0        0.887097   -0.137959   -4.559645
     21          1           0        2.272097   -0.321462   -3.434133
     22          1           0        0.917699   -1.480788   -3.411374
     23         26           0        0.851200   -0.134091   -0.114737
     24          6           0       -2.685808   -0.193822   -0.090357
     25          6           0        0.958186   -3.449554   -0.840383
     26          6           0        4.256478    0.166276   -0.228549
     27          6           0        0.660946    3.248850    0.835466
     28          7           0       -0.616053   -1.562596   -0.463388
     29          6           0       -1.979180   -1.373847   -0.370409
     30          6           0       -2.598153   -2.667103   -0.560241
     31          6           0       -1.590422   -3.574909   -0.829104
     32          6           0       -0.324064   -2.874112   -0.712721
     33          6           0       -1.806219   -5.022677   -1.224541
     34          6           0       -4.083954   -2.978856   -0.485540
     35          6           0       -4.799711   -2.544452    0.803383
     36          6           0       -5.941381   -3.475852    1.193845
     37          8           0       -7.071233   -3.229773    0.714004
     38          8           0       -5.666235   -4.430335    1.949723
     39          7           0        2.338634   -1.399639   -0.481269
     40          6           0        2.165519   -2.722756   -0.741667
     41          6           0        3.488225   -3.295029   -0.855939
     42          6           0        4.410569   -2.267734   -0.770219
     43          6           0        3.666939   -1.072159   -0.476675
     44          6           0        3.778655   -4.768237   -0.913968
     45          6           0        5.909248   -2.311193   -1.035668
     46          6           0        6.232967   -2.760997   -2.460139
     47          7           0        2.206747    1.423832    0.224648
     48          6           0        3.543850    1.284112    0.133641
     49          6           0        4.158485    2.526835    0.517627
     50          6           0        3.149390    3.354172    0.951780
     51          6           0        1.907393    2.683927    0.643660
     52          6           0        5.642271    2.789578    0.549710
     53          6           0        3.289610    4.558670    1.862947
     54          6           0        3.743899    5.839569    1.162601
     55          7           0       -0.737386    1.287959    0.283469
     56          6           0       -0.539155    2.583475    0.644273
     57          6           0       -1.827735    3.204281    0.821694
     58          6           0       -2.781397    2.247343    0.568310
     59          6           0       -2.077091    1.025002    0.219928
     60          6           0       -2.075101    4.628643    1.259981
     61          6           0       -4.279099    2.453789    0.681172
     62          6           0       -5.043527    2.171806   -0.616278
     63          6           0       -5.556165    3.401845   -1.367487
     64          8           0       -6.004668    4.394448   -0.747297
     65          8           0       -5.534963    3.299995   -2.609088
     66          1           0       -3.759515   -0.226535   -0.087202
     67          1           0        1.032060   -4.505789   -1.034615
     68          1           0        5.324717    0.274349   -0.237356
     69          1           0        0.620761    4.286706    1.109261
     70          1           0       -2.273543   -5.060240   -2.210059
     71          1           0       -0.880697   -5.595160   -1.262635
     72          1           0       -2.471265   -5.500094   -0.507947
     73          1           0       -4.575232   -2.492297   -1.323351
     74          1           0       -4.217837   -4.054553   -0.585099
     75          1           0       -4.072388   -2.546773    1.608614
     76          1           0       -5.240553   -1.553873    0.696421
     77          1           0        3.350121   -5.219196   -1.808147
     78          1           0        4.848405   -4.933969   -0.901059
     79          1           0        3.343754   -5.227528   -0.029196
     80          1           0        6.350859   -1.325813   -0.963823
     81          1           0        5.783597   -2.059247   -3.163035
     82          1           0        7.312270   -2.781775   -2.603166
     83          1           0        5.823343   -3.745913   -2.650847
     84          1           0        6.055306    2.603094   -0.441598
     85          1           0        5.856244    3.814934    0.836161
     86          1           0        6.110038    2.119024    1.269996
     87          1           0        2.322886    4.787984    2.293245
     88          1           0        2.974367    6.132744    0.449281
     89          1           0        3.862354    6.631084    1.901739
     90          1           0        4.686720    5.688731    0.641138
     91          1           0       -1.312254    5.295469    0.861168
     92          1           0       -3.034935    4.979380    0.901953
     93          1           0       -2.065661    4.675749    2.346604
     94          1           0       -4.663977    1.805481    1.467616
     95          1           0       -4.510661    3.464395    1.003036
     96          1           0       -4.385629    1.633045   -1.297540
     97          1           0       -5.893429    1.527729   -0.393954
     98          1           0       -0.266490    4.125727   -2.474270
     99          1           0        2.578062   -1.465087    5.638144
    100          1           0       -7.755124   -2.846864    1.268327
    101          1           0       -6.100415    4.360849    0.207325
 ---------------------------------------------------------------------
 Rotational constants (GHZ):           0.0628899           0.0454632           0.0340367
 Standard basis: def2TZVP (5D, 7F)
 There are  2218 symmetry adapted cartesian basis functions of A   symmetry.
 There are  1951 symmetry adapted basis functions of A   symmetry.
  1951 basis functions,  3156 primitive gaussians,  2218 cartesian basis functions
   207 alpha electrons      202 beta electrons
       nuclear repulsion energy      8922.7994009688 Hartrees.
 NAtoms=  101 NActive=  101 NUniq=  101 SFac= 1.00D+00 NAtFMM=   60 NAOKFM=T Big=T
 Integral buffers will be    131072 words long.
 Raffenetti 2 integral format.
 Two-electron integral symmetry is turned on.
 Nuclear repulsion after empirical dispersion term =     8922.6502020192 Hartrees.
 One-electron integrals computed using PRISM.
   1 Symmetry operations used in ECPInt.
 ECPInt:  NShTT=  305371 NPrTT=  941867 LenC2=  223665 LenP2D=  445742.
 LDataN:  DoStor=T MaxTD1= 6 Len=  172
 NBasis=  1951 RedAO= T EigKep=  3.17D-06  NBF=  1951
 NBsUse=  1951 1.00D-06 EigRej= -1.00D+00 NBFU=  1951
 ExpMin= 4.20D-02 ExpMax= 3.01D+05 ExpMxC= 2.91D+03 IAcc=3 IRadAn=         5 AccDes= 0.00D+00
 Harris functional with IExCor= 1009 and IRadAn=       5 diagonalized for initial guess.
 HarFok:  IExCor= 1009 AccDes= 0.00D+00 IRadAn=         5 IDoV= 1 UseB2=F ITyADJ=14
 ICtDFT=  3500011 ScaDFX=  1.000000  1.000000  1.000000  1.000000
 FoFCou: FMM=F IPFlag=           0 FMFlag=      100000 FMFlg1=        2001
         NFxFlg=           0 DoJE=T BraDBF=F KetDBF=T FulRan=T
         wScrn=  0.000000 ICntrl=       500 IOpCl=  0 I1Cent=   200000004 NGrid=           0
         NMat0=    1 NMatS0=      1 NMatT0=    0 NMatD0=    1 NMtDS0=    0 NMtDT0=    0
 Petite list used in FoFCou.
 Initial guess <Sx>= 0.0000 <Sy>= 0.0000 <Sz>= 2.5000 <S**2>= 8.7500 S= 2.5000
 Requested convergence on RMS density matrix=1.00D-08 within 999 cycles.
 Requested convergence on MAX density matrix=1.00D-06.
 Requested convergence on             energy=1.00D-06.
 No special actions if energy rises.
 EnCoef did   100 forward-backward iterations
 EnCoef did   100 forward-backward iterations
 EnCoef did   100 forward-backward iterations
 EnCoef did     1 forward-backward iterations
 EnCoef did    14 forward-backward iterations
 EnCoef did     7 forward-backward iterations
 EnCoef did     3 forward-backward iterations
 EnCoef did   100 forward-backward iterations
 EnCoef did     8 forward-backward iterations
 Restarting incremental Fock formation.
 Restarting incremental Fock formation.
 Restarting incremental Fock formation.
 Restarting incremental Fock formation.
 Restarting incremental Fock formation.
 Restarting incremental Fock formation.
 SCF Done:  E(UPBE1PBE) =  -3880.35711135     A.U. after  122 cycles
            NFock=122  Conv=0.21D-08     -V/T= 2.0034
 <Sx>= 0.0000 <Sy>= 0.0000 <Sz>= 2.5000 <S**2>= 8.8737 S= 2.5205
 <L.S>= 0.000000000000E+00
 Annihilation of the first spin contaminant:
 S**2 before annihilation     8.8737,   after     8.7537
 Hyperfine terms turned off by default for NAtoms > 100.

 **********************************************************************

            Population analysis using the SCF density.

 **********************************************************************

 Orbital symmetries:
 Alpha Orbitals:
       Occupied  (A) (A) (A) (A) (A) (A) (A) (A) (A) (A) (A) (A)
                 (A) (A) (A) (A) (A) (A) (A) (A) (A) (A) (A) (A)
                 (A) (A) (A) (A) (A) (A) (A) (A) (A) (A) (A) (A)
                 (A) (A) (A) (A) (A) (A) (A) (A) (A) (A) (A) (A)
                 (A) (A) (A) (A) (A) (A) (A) (A) (A) (A) (A) (A)
                 (A) (A) (A) (A) (A) (A) (A) (A) (A) (A) (A) (A)
                 (A) (A) (A) (A) (A) (A) (A) (A) (A) (A) (A) (A)
                 (A) (A) (A) (A) (A) (A) (A) (A) (A) (A) (A) (A)
                 (A) (A) (A) (A) (A) (A) (A) (A) (A) (A) (A) (A)
                 (A) (A) (A) (A) (A) (A) (A) (A) (A) (A) (A) (A)
                 (A) (A) (A) (A) (A) (A) (A) (A) (A) (A) (A) (A)
                 (A) (A) (A) (A) (A) (A) (A) (A) (A) (A) (A) (A)
                 (A) (A) (A) (A) (A) (A) (A) (A) (A) (A) (A) (A)
                 (A) (A) (A) (A) (A) (A) (A) (A) (A) (A) (A) (A)
                 (A) (A) (A) (A) (A) (A) (A) (A) (A) (A) (A) (A)
                 (A) (A) (A) (A) (A) (A) (A) (A) (A) (A) (A) (A)
                 (A) (A) (A) (A) (A) (A) (A) (A) (A) (A) (A) (A)
                 (A) (A) (A)
       Virtual   (A) (A) (A) (A) (A) (A) (A) (A) (A) (A) (A) (A)
                 (A) (A) (A) (A) (A) (A) (A) (A) (A) (A) (A) (A)
                 (A) (A) (A) (A) (A) (A) (A) (A) (A) (A) (A) (A)
                 (A) (A) (A) (A) (A) (A) (A) (A) (A) (A) (A) (A)
                 (A) (A) (A) (A) (A) (A) (A) (A) (A) (A) (A) (A)
                 (A) (A) (A) (A) (A) (A) (A) (A) (A) (A) (A) (A)
                 (A) (A) (A) (A) (A) (A) (A) (A) (A) (A) (A) (A)
                 (A) (A) (A) (A) (A) (A) (A) (A) (A) (A) (A) (A)
                 (A) (A) (A) (A) (A) (A) (A) (A) (A) (A) (A) (A)
                 (A) (A) (A) (A) (A) (A) (A) (A) (A) (A) (A) (A)
                 (A) (A) (A) (A) (A) (A) (A) (A) (A) (A) (A) (A)
                 (A) (A) (A) (A) (A) (A) (A) (A) (A) (A) (A) (A)
                 (A) (A) (A) (A) (A) (A) (A) (A) (A) (A) (A) (A)
                 (A) (A) (A) (A) (A) (A) (A) (A) (A) (A) (A) (A)
                 (A) (A) (A) (A) (A) (A) (A) (A) (A) (A) (A) (A)
                 (A) (A) (A) (A) (A) (A) (A) (A) (A) (A) (A) (A)
                 (A) (A) (A) (A) (A) (A) (A) (A) (A) (A) (A) (A)
                 (A) (A) (A) (A) (A) (A) (A) (A) (A) (A) (A) (A)
                 (A) (A) (A) (A) (A) (A) (A) (A) (A) (A) (A) (A)
                 (A) (A) (A) (A) (A) (A) (A) (A) (A) (A) (A) (A)
                 (A) (A) (A) (A) (A) (A) (A) (A) (A) (A) (A) (A)
                 (A) (A) (A) (A) (A) (A) (A) (A) (A) (A) (A) (A)
                 (A) (A) (A) (A) (A) (A) (A) (A) (A) (A) (A) (A)
                 (A) (A) (A) (A) (A) (A) (A) (A) (A) (A) (A) (A)
                 (A) (A) (A) (A) (A) (A) (A) (A) (A) (A) (A) (A)
                 (A) (A) (A) (A) (A) (A) (A) (A) (A) (A) (A) (A)
                 (A) (A) (A) (A) (A) (A) (A) (A) (A) (A) (A) (A)
                 (A) (A) (A) (A) (A) (A) (A) (A) (A) (A) (A) (A)
                 (A) (A) (A) (A) (A) (A) (A) (A) (A) (A) (A) (A)
                 (A) (A) (A) (A) (A) (A) (A) (A) (A) (A) (A) (A)
                 (A) (A) (A) (A) (A) (A) (A) (A) (A) (A) (A) (A)
                 (A) (A) (A) (A) (A) (A) (A) (A) (A) (A) (A) (A)
                 (A) (A) (A) (A) (A) (A) (A) (A) (A) (A) (A) (A)
                 (A) (A) (A) (A) (A) (A) (A) (A) (A) (A) (A) (A)
                 (A) (A) (A) (A) (A) (A) (A) (A) (A) (A) (A) (A)
                 (A) (A) (A) (A) (A) (A) (A) (A) (A) (A) (A) (A)
                 (A) (A) (A) (A) (A) (A) (A) (A) (A) (A) (A) (A)
                 (A) (A) (A) (A) (A) (A) (A) (A) (A) (A) (A) (A)
                 (A) (A) (A) (A) (A) (A) (A) (A) (A) (A) (A) (A)
                 (A) (A) (A) (A) (A) (A) (A) (A) (A) (A) (A) (A)
                 (A) (A) (A) (A) (A) (A) (A) (A) (A) (A) (A) (A)
                 (A) (A) (A) (A) (A) (A) (A) (A) (A) (A) (A) (A)
                 (A) (A) (A) (A) (A) (A) (A) (A) (A) (A) (A) (A)
                 (A) (A) (A) (A) (A) (A) (A) (A) (A) (A) (A) (A)
                 (A) (A) (A) (A) (A) (A) (A) (A) (A) (A) (A) (A)
                 (A) (A) (A) (A) (A) (A) (A) (A) (A) (A) (A) (A)
                 (A) (A) (A) (A) (A) (A) (A) (A) (A) (A) (A) (A)
                 (A) (A) (A) (A) (A) (A) (A) (A) (A) (A) (A) (A)
                 (A) (A) (A) (A) (A) (A) (A) (A) (A) (A) (A) (A)
                 (A) (A) (A) (A) (A) (A) (A) (A) (A) (A) (A) (A)
                 (A) (A) (A) (A) (A) (A) (A) (A) (A) (A) (A) (A)
                 (A) (A) (A) (A) (A) (A) (A) (A) (A) (A) (A) (A)
                 (A) (A) (A) (A) (A) (A) (A) (A) (A) (A) (A) (A)
                 (A) (A) (A) (A) (A) (A) (A) (A) (A) (A) (A) (A)
                 (A) (A) (A) (A) (A) (A) (A) (A) (A) (A) (A) (A)
                 (A) (A) (A) (A) (A) (A) (A) (A) (A) (A) (A) (A)
                 (A) (A) (A) (A) (A) (A) (A) (A) (A) (A) (A) (A)
                 (A) (A) (A) (A) (A) (A) (A) (A) (A) (A) (A) (A)
                 (A) (A) (A) (A) (A) (A) (A) (A) (A) (A) (A) (A)
                 (A) (A) (A) (A) (A) (A) (A) (A) (A) (A) (A) (A)
                 (A) (A) (A) (A) (A) (A) (A) (A) (A) (A) (A) (A)
                 (A) (A) (A) (A) (A) (A) (A) (A) (A) (A) (A) (A)
                 (A) (A) (A) (A) (A) (A) (A) (A) (A) (A) (A) (A)
                 (A) (A) (A) (A) (A) (A) (A) (A) (A) (A) (A) (A)
                 (A) (A) (A) (A) (A) (A) (A) (A) (A) (A) (A) (A)
                 (A) (A) (A) (A) (A) (A) (A) (A) (A) (A) (A) (A)
                 (A) (A) (A) (A) (A) (A) (A) (A) (A) (A) (A) (A)
                 (A) (A) (A) (A) (A) (A) (A) (A) (A) (A) (A) (A)
                 (A) (A) (A) (A) (A) (A) (A) (A) (A) (A) (A) (A)
                 (A) (A) (A) (A) (A) (A) (A) (A) (A) (A) (A) (A)
                 (A) (A) (A) (A) (A) (A) (A) (A) (A) (A) (A) (A)
                 (A) (A) (A) (A) (A) (A) (A) (A) (A) (A) (A) (A)
                 (A) (A) (A) (A) (A) (A) (A) (A) (A) (A) (A) (A)
                 (A) (A) (A) (A) (A) (A) (A) (A) (A) (A) (A) (A)
                 (A) (A) (A) (A) (A) (A) (A) (A) (A) (A) (A) (A)
                 (A) (A) (A) (A) (A) (A) (A) (A) (A) (A) (A) (A)
                 (A) (A) (A) (A) (A) (A) (A) (A) (A) (A) (A) (A)
                 (A) (A) (A) (A) (A) (A) (A) (A) (A) (A) (A) (A)
                 (A) (A) (A) (A) (A) (A) (A) (A) (A) (A) (A) (A)
                 (A) (A) (A) (A) (A) (A) (A) (A) (A) (A) (A) (A)
                 (A) (A) (A) (A) (A) (A) (A) (A) (A) (A) (A) (A)
                 (A) (A) (A) (A) (A) (A) (A) (A) (A) (A) (A) (A)
                 (A) (A) (A) (A) (A) (A) (A) (A) (A) (A) (A) (A)
                 (A) (A) (A) (A) (A) (A) (A) (A) (A) (A) (A) (A)
                 (A) (A) (A) (A) (A) (A) (A) (A) (A) (A) (A) (A)
                 (A) (A) (A) (A) (A) (A) (A) (A) (A) (A) (A) (A)
                 (A) (A) (A) (A) (A) (A) (A) (A) (A) (A) (A) (A)
                 (A) (A) (A) (A) (A) (A) (A) (A) (A) (A) (A) (A)
                 (A) (A) (A) (A) (A) (A) (A) (A) (A) (A) (A) (A)
                 (A) (A) (A) (A) (A) (A) (A) (A) (A) (A) (A) (A)
                 (A) (A) (A) (A) (A) (A) (A) (A) (A) (A) (A) (A)
                 (A) (A) (A) (A) (A) (A) (A) (A) (A) (A) (A) (A)
                 (A) (A) (A) (A) (A) (A) (A) (A) (A) (A) (A) (A)
                 (A) (A) (A) (A) (A) (A) (A) (A) (A) (A) (A) (A)
                 (A) (A) (A) (A) (A) (A) (A) (A) (A) (A) (A) (A)
                 (A) (A) (A) (A) (A) (A) (A) (A) (A) (A) (A) (A)
                 (A) (A) (A) (A) (A) (A) (A) (A) (A) (A) (A) (A)
                 (A) (A) (A) (A) (A) (A) (A) (A) (A) (A) (A) (A)
                 (A) (A) (A) (A) (A) (A) (A) (A) (A) (A) (A) (A)
                 (A) (A) (A) (A) (A) (A) (A) (A) (A) (A) (A) (A)
                 (A) (A) (A) (A) (A) (A) (A) (A) (A) (A) (A) (A)
                 (A) (A) (A) (A) (A) (A) (A) (A) (A) (A) (A) (A)
                 (A) (A) (A) (A) (A) (A) (A) (A) (A) (A) (A) (A)
                 (A) (A) (A) (A) (A) (A) (A) (A) (A) (A) (A) (A)
                 (A) (A) (A) (A) (A) (A) (A) (A) (A) (A) (A) (A)
                 (A) (A) (A) (A) (A) (A) (A) (A) (A) (A) (A) (A)
                 (A) (A) (A) (A) (A) (A) (A) (A) (A) (A) (A) (A)
                 (A) (A) (A) (A) (A) (A) (A) (A) (A) (A) (A) (A)
                 (A) (A) (A) (A) (A) (A) (A) (A) (A) (A) (A) (A)
                 (A) (A) (A) (A) (A) (A) (A) (A) (A) (A) (A) (A)
                 (A) (A) (A) (A) (A) (A) (A) (A) (A) (A) (A) (A)
                 (A) (A) (A) (A) (A) (A) (A) (A) (A) (A) (A) (A)
                 (A) (A) (A) (A) (A) (A) (A) (A) (A) (A) (A) (A)
                 (A) (A) (A) (A) (A) (A) (A) (A) (A) (A) (A) (A)
                 (A) (A) (A) (A) (A) (A) (A) (A) (A) (A) (A) (A)
                 (A) (A) (A) (A) (A) (A) (A) (A) (A) (A) (A) (A)
                 (A) (A) (A) (A) (A) (A) (A) (A) (A) (A) (A) (A)
                 (A) (A) (A) (A) (A) (A) (A) (A) (A) (A) (A) (A)
                 (A) (A) (A) (A) (A) (A) (A) (A) (A) (A) (A) (A)
                 (A) (A) (A) (A) (A) (A) (A) (A) (A) (A) (A) (A)
                 (A) (A) (A) (A) (A) (A) (A) (A) (A) (A) (A) (A)
                 (A) (A) (A) (A) (A) (A) (A) (A) (A) (A) (A) (A)
                 (A) (A) (A) (A) (A) (A) (A) (A) (A) (A) (A) (A)
                 (A) (A) (A) (A) (A) (A) (A) (A) (A) (A) (A) (A)
                 (A) (A) (A) (A) (A) (A) (A) (A) (A) (A) (A) (A)
                 (A) (A) (A) (A) (A) (A) (A) (A) (A) (A) (A) (A)
                 (A) (A) (A) (A) (A) (A) (A) (A) (A) (A) (A) (A)
                 (A) (A) (A) (A) (A) (A) (A) (A) (A) (A) (A) (A)
                 (A) (A) (A) (A) (A) (A) (A) (A) (A) (A) (A) (A)
                 (A) (A) (A) (A) (A) (A) (A) (A) (A) (A) (A) (A)
                 (A) (A) (A) (A) (A) (A) (A) (A) (A) (A) (A) (A)
                 (A) (A) (A) (A) (A) (A) (A) (A) (A) (A) (A) (A)
                 (A) (A) (A) (A) (A) (A) (A) (A) (A) (A) (A) (A)
                 (A) (A) (A) (A) (A) (A) (A) (A) (A) (A) (A) (A)
                 (A) (A) (A) (A) (A) (A) (A) (A) (A) (A) (A) (A)
                 (A) (A) (A) (A) (A) (A) (A) (A) (A) (A) (A) (A)
                 (A) (A) (A) (A) (A) (A) (A) (A) (A) (A) (A) (A)
                 (A) (A) (A) (A) (A) (A) (A) (A) (A) (A) (A) (A)
                 (A) (A) (A) (A) (A) (A) (A) (A) (A) (A) (A) (A)
                 (A) (A) (A) (A) (A) (A) (A) (A) (A) (A) (A) (A)
                 (A) (A) (A) (A) (A) (A) (A) (A) (A) (A) (A) (A)
                 (A) (A) (A) (A) (A) (A) (A) (A) (A) (A) (A) (A)
                 (A) (A) (A) (A) (A) (A) (A) (A) (A) (A) (A) (A)
                 (A) (A) (A) (A) (A) (A) (A) (A) (A) (A) (A) (A)
                 (A) (A) (A) (A) (A) (A) (A) (A) (A) (A) (A) (A)
                 (A) (A) (A) (A)
 Beta  Orbitals:
       Occupied  (A) (A) (A) (A) (A) (A) (A) (A) (A) (A) (A) (A)
                 (A) (A) (A) (A) (A) (A) (A) (A) (A) (A) (A) (A)
                 (A) (A) (A) (A) (A) (A) (A) (A) (A) (A) (A) (A)
                 (A) (A) (A) (A) (A) (A) (A) (A) (A) (A) (A) (A)
                 (A) (A) (A) (A) (A) (A) (A) (A) (A) (A) (A) (A)
                 (A) (A) (A) (A) (A) (A) (A) (A) (A) (A) (A) (A)
                 (A) (A) (A) (A) (A) (A) (A) (A) (A) (A) (A) (A)
                 (A) (A) (A) (A) (A) (A) (A) (A) (A) (A) (A) (A)
                 (A) (A) (A) (A) (A) (A) (A) (A) (A) (A) (A) (A)
                 (A) (A) (A) (A) (A) (A) (A) (A) (A) (A) (A) (A)
                 (A) (A) (A) (A) (A) (A) (A) (A) (A) (A) (A) (A)
                 (A) (A) (A) (A) (A) (A) (A) (A) (A) (A) (A) (A)
                 (A) (A) (A) (A) (A) (A) (A) (A) (A) (A) (A) (A)
                 (A) (A) (A) (A) (A) (A) (A) (A) (A) (A) (A) (A)
                 (A) (A) (A) (A) (A) (A) (A) (A) (A) (A) (A) (A)
                 (A) (A) (A) (A) (A) (A) (A) (A) (A) (A) (A) (A)
                 (A) (A) (A) (A) (A) (A) (A) (A) (A) (A)
       Virtual   (A) (A) (A) (A) (A) (A) (A) (A) (A) (A) (A) (A)
                 (A) (A) (A) (A) (A) (A) (A) (A) (A) (A) (A) (A)
                 (A) (A) (A) (A) (A) (A) (A) (A) (A) (A) (A) (A)
                 (A) (A) (A) (A) (A) (A) (A) (A) (A) (A) (A) (A)
                 (A) (A) (A) (A) (A) (A) (A) (A) (A) (A) (A) (A)
                 (A) (A) (A) (A) (A) (A) (A) (A) (A) (A) (A) (A)
                 (A) (A) (A) (A) (A) (A) (A) (A) (A) (A) (A) (A)
                 (A) (A) (A) (A) (A) (A) (A) (A) (A) (A) (A) (A)
                 (A) (A) (A) (A) (A) (A) (A) (A) (A) (A) (A) (A)
                 (A) (A) (A) (A) (A) (A) (A) (A) (A) (A) (A) (A)
                 (A) (A) (A) (A) (A) (A) (A) (A) (A) (A) (A) (A)
                 (A) (A) (A) (A) (A) (A) (A) (A) (A) (A) (A) (A)
                 (A) (A) (A) (A) (A) (A) (A) (A) (A) (A) (A) (A)
                 (A) (A) (A) (A) (A) (A) (A) (A) (A) (A) (A) (A)
                 (A) (A) (A) (A) (A) (A) (A) (A) (A) (A) (A) (A)
                 (A) (A) (A) (A) (A) (A) (A) (A) (A) (A) (A) (A)
                 (A) (A) (A) (A) (A) (A) (A) (A) (A) (A) (A) (A)
                 (A) (A) (A) (A) (A) (A) (A) (A) (A) (A) (A) (A)
                 (A) (A) (A) (A) (A) (A) (A) (A) (A) (A) (A) (A)
                 (A) (A) (A) (A) (A) (A) (A) (A) (A) (A) (A) (A)
                 (A) (A) (A) (A) (A) (A) (A) (A) (A) (A) (A) (A)
                 (A) (A) (A) (A) (A) (A) (A) (A) (A) (A) (A) (A)
                 (A) (A) (A) (A) (A) (A) (A) (A) (A) (A) (A) (A)
                 (A) (A) (A) (A) (A) (A) (A) (A) (A) (A) (A) (A)
                 (A) (A) (A) (A) (A) (A) (A) (A) (A) (A) (A) (A)
                 (A) (A) (A) (A) (A) (A) (A) (A) (A) (A) (A) (A)
                 (A) (A) (A) (A) (A) (A) (A) (A) (A) (A) (A) (A)
                 (A) (A) (A) (A) (A) (A) (A) (A) (A) (A) (A) (A)
                 (A) (A) (A) (A) (A) (A) (A) (A) (A) (A) (A) (A)
                 (A) (A) (A) (A) (A) (A) (A) (A) (A) (A) (A) (A)
                 (A) (A) (A) (A) (A) (A) (A) (A) (A) (A) (A) (A)
                 (A) (A) (A) (A) (A) (A) (A) (A) (A) (A) (A) (A)
                 (A) (A) (A) (A) (A) (A) (A) (A) (A) (A) (A) (A)
                 (A) (A) (A) (A) (A) (A) (A) (A) (A) (A) (A) (A)
                 (A) (A) (A) (A) (A) (A) (A) (A) (A) (A) (A) (A)
                 (A) (A) (A) (A) (A) (A) (A) (A) (A) (A) (A) (A)
                 (A) (A) (A) (A) (A) (A) (A) (A) (A) (A) (A) (A)
                 (A) (A) (A) (A) (A) (A) (A) (A) (A) (A) (A) (A)
                 (A) (A) (A) (A) (A) (A) (A) (A) (A) (A) (A) (A)
                 (A) (A) (A) (A) (A) (A) (A) (A) (A) (A) (A) (A)
                 (A) (A) (A) (A) (A) (A) (A) (A) (A) (A) (A) (A)
                 (A) (A) (A) (A) (A) (A) (A) (A) (A) (A) (A) (A)
                 (A) (A) (A) (A) (A) (A) (A) (A) (A) (A) (A) (A)
                 (A) (A) (A) (A) (A) (A) (A) (A) (A) (A) (A) (A)
                 (A) (A) (A) (A) (A) (A) (A) (A) (A) (A) (A) (A)
                 (A) (A) (A) (A) (A) (A) (A) (A) (A) (A) (A) (A)
                 (A) (A) (A) (A) (A) (A) (A) (A) (A) (A) (A) (A)
                 (A) (A) (A) (A) (A) (A) (A) (A) (A) (A) (A) (A)
                 (A) (A) (A) (A) (A) (A) (A) (A) (A) (A) (A) (A)
                 (A) (A) (A) (A) (A) (A) (A) (A) (A) (A) (A) (A)
                 (A) (A) (A) (A) (A) (A) (A) (A) (A) (A) (A) (A)
                 (A) (A) (A) (A) (A) (A) (A) (A) (A) (A) (A) (A)
                 (A) (A) (A) (A) (A) (A) (A) (A) (A) (A) (A) (A)
                 (A) (A) (A) (A) (A) (A) (A) (A) (A) (A) (A) (A)
                 (A) (A) (A) (A) (A) (A) (A) (A) (A) (A) (A) (A)
                 (A) (A) (A) (A) (A) (A) (A) (A) (A) (A) (A) (A)
                 (A) (A) (A) (A) (A) (A) (A) (A) (A) (A) (A) (A)
                 (A) (A) (A) (A) (A) (A) (A) (A) (A) (A) (A) (A)
                 (A) (A) (A) (A) (A) (A) (A) (A) (A) (A) (A) (A)
                 (A) (A) (A) (A) (A) (A) (A) (A) (A) (A) (A) (A)
                 (A) (A) (A) (A) (A) (A) (A) (A) (A) (A) (A) (A)
                 (A) (A) (A) (A) (A) (A) (A) (A) (A) (A) (A) (A)
                 (A) (A) (A) (A) (A) (A) (A) (A) (A) (A) (A) (A)
                 (A) (A) (A) (A) (A) (A) (A) (A) (A) (A) (A) (A)
                 (A) (A) (A) (A) (A) (A) (A) (A) (A) (A) (A) (A)
                 (A) (A) (A) (A) (A) (A) (A) (A) (A) (A) (A) (A)
                 (A) (A) (A) (A) (A) (A) (A) (A) (A) (A) (A) (A)
                 (A) (A) (A) (A) (A) (A) (A) (A) (A) (A) (A) (A)
                 (A) (A) (A) (A) (A) (A) (A) (A) (A) (A) (A) (A)
                 (A) (A) (A) (A) (A) (A) (A) (A) (A) (A) (A) (A)
                 (A) (A) (A) (A) (A) (A) (A) (A) (A) (A) (A) (A)
                 (A) (A) (A) (A) (A) (A) (A) (A) (A) (A) (A) (A)
                 (A) (A) (A) (A) (A) (A) (A) (A) (A) (A) (A) (A)
                 (A) (A) (A) (A) (A) (A) (A) (A) (A) (A) (A) (A)
                 (A) (A) (A) (A) (A) (A) (A) (A) (A) (A) (A) (A)
                 (A) (A) (A) (A) (A) (A) (A) (A) (A) (A) (A) (A)
                 (A) (A) (A) (A) (A) (A) (A) (A) (A) (A) (A) (A)
                 (A) (A) (A) (A) (A) (A) (A) (A) (A) (A) (A) (A)
                 (A) (A) (A) (A) (A) (A) (A) (A) (A) (A) (A) (A)
                 (A) (A) (A) (A) (A) (A) (A) (A) (A) (A) (A) (A)
                 (A) (A) (A) (A) (A) (A) (A) (A) (A) (A) (A) (A)
                 (A) (A) (A) (A) (A) (A) (A) (A) (A) (A) (A) (A)
                 (A) (A) (A) (A) (A) (A) (A) (A) (A) (A) (A) (A)
                 (A) (A) (A) (A) (A) (A) (A) (A) (A) (A) (A) (A)
                 (A) (A) (A) (A) (A) (A) (A) (A) (A) (A) (A) (A)
                 (A) (A) (A) (A) (A) (A) (A) (A) (A) (A) (A) (A)
                 (A) (A) (A) (A) (A) (A) (A) (A) (A) (A) (A) (A)
                 (A) (A) (A) (A) (A) (A) (A) (A) (A) (A) (A) (A)
                 (A) (A) (A) (A) (A) (A) (A) (A) (A) (A) (A) (A)
                 (A) (A) (A) (A) (A) (A) (A) (A) (A) (A) (A) (A)
                 (A) (A) (A) (A) (A) (A) (A) (A) (A) (A) (A) (A)
                 (A) (A) (A) (A) (A) (A) (A) (A) (A) (A) (A) (A)
                 (A) (A) (A) (A) (A) (A) (A) (A) (A) (A) (A) (A)
                 (A) (A) (A) (A) (A) (A) (A) (A) (A) (A) (A) (A)
                 (A) (A) (A) (A) (A) (A) (A) (A) (A) (A) (A) (A)
                 (A) (A) (A) (A) (A) (A) (A) (A) (A) (A) (A) (A)
                 (A) (A) (A) (A) (A) (A) (A) (A) (A) (A) (A) (A)
                 (A) (A) (A) (A) (A) (A) (A) (A) (A) (A) (A) (A)
                 (A) (A) (A) (A) (A) (A) (A) (A) (A) (A) (A) (A)
                 (A) (A) (A) (A) (A) (A) (A) (A) (A) (A) (A) (A)
                 (A) (A) (A) (A) (A) (A) (A) (A) (A) (A) (A) (A)
                 (A) (A) (A) (A) (A) (A) (A) (A) (A) (A) (A) (A)
                 (A) (A) (A) (A) (A) (A) (A) (A) (A) (A) (A) (A)
                 (A) (A) (A) (A) (A) (A) (A) (A) (A) (A) (A) (A)
                 (A) (A) (A) (A) (A) (A) (A) (A) (A) (A) (A) (A)
                 (A) (A) (A) (A) (A) (A) (A) (A) (A) (A) (A) (A)
                 (A) (A) (A) (A) (A) (A) (A) (A) (A) (A) (A) (A)
                 (A) (A) (A) (A) (A) (A) (A) (A) (A) (A) (A) (A)
                 (A) (A) (A) (A) (A) (A) (A) (A) (A) (A) (A) (A)
                 (A) (A) (A) (A) (A) (A) (A) (A) (A) (A) (A) (A)
                 (A) (A) (A) (A) (A) (A) (A) (A) (A) (A) (A) (A)
                 (A) (A) (A) (A) (A) (A) (A) (A) (A) (A) (A) (A)
                 (A) (A) (A) (A) (A) (A) (A) (A) (A) (A) (A) (A)
                 (A) (A) (A) (A) (A) (A) (A) (A) (A) (A) (A) (A)
                 (A) (A) (A) (A) (A) (A) (A) (A) (A) (A) (A) (A)
                 (A) (A) (A) (A) (A) (A) (A) (A) (A) (A) (A) (A)
                 (A) (A) (A) (A) (A) (A) (A) (A) (A) (A) (A) (A)
                 (A) (A) (A) (A) (A) (A) (A) (A) (A) (A) (A) (A)
                 (A) (A) (A) (A) (A) (A) (A) (A) (A) (A) (A) (A)
                 (A) (A) (A) (A) (A) (A) (A) (A) (A) (A) (A) (A)
                 (A) (A) (A) (A) (A) (A) (A) (A) (A) (A) (A) (A)
                 (A) (A) (A) (A) (A) (A) (A) (A) (A) (A) (A) (A)
                 (A) (A) (A) (A) (A) (A) (A) (A) (A) (A) (A) (A)
                 (A) (A) (A) (A) (A) (A) (A) (A) (A) (A) (A) (A)
                 (A) (A) (A) (A) (A) (A) (A) (A) (A) (A) (A) (A)
                 (A) (A) (A) (A) (A) (A) (A) (A) (A) (A) (A) (A)
                 (A) (A) (A) (A) (A) (A) (A) (A) (A) (A) (A) (A)
                 (A) (A) (A) (A) (A) (A) (A) (A) (A) (A) (A) (A)
                 (A) (A) (A) (A) (A) (A) (A) (A) (A) (A) (A) (A)
                 (A) (A) (A) (A) (A) (A) (A) (A) (A) (A) (A) (A)
                 (A) (A) (A) (A) (A) (A) (A) (A) (A) (A) (A) (A)
                 (A) (A) (A) (A) (A) (A) (A) (A) (A) (A) (A) (A)
                 (A) (A) (A) (A) (A) (A) (A) (A) (A) (A) (A) (A)
                 (A) (A) (A) (A) (A) (A) (A) (A) (A) (A) (A) (A)
                 (A) (A) (A) (A) (A) (A) (A) (A) (A) (A) (A) (A)
                 (A) (A) (A) (A) (A) (A) (A) (A) (A) (A) (A) (A)
                 (A) (A) (A) (A) (A) (A) (A) (A) (A) (A) (A) (A)
                 (A) (A) (A) (A) (A) (A) (A) (A) (A) (A) (A) (A)
                 (A) (A) (A) (A) (A) (A) (A) (A) (A) (A) (A) (A)
                 (A) (A) (A) (A) (A) (A) (A) (A) (A) (A) (A) (A)
                 (A) (A) (A) (A) (A) (A) (A) (A) (A) (A) (A) (A)
                 (A) (A) (A) (A) (A) (A) (A) (A) (A) (A) (A) (A)
                 (A) (A) (A) (A) (A) (A) (A) (A) (A) (A) (A) (A)
                 (A) (A) (A) (A) (A) (A) (A) (A) (A) (A) (A) (A)
                 (A) (A) (A) (A) (A) (A) (A) (A) (A) (A) (A) (A)
                 (A) (A) (A) (A) (A) (A) (A) (A) (A)
 The electronic state is 6-A.
 Alpha  occ. eigenvalues -- -256.52217 -89.15828 -30.32962 -26.16481 -26.14539
 Alpha  occ. eigenvalues --  -26.13722 -19.34879 -19.33067 -19.25906 -19.24377
 Alpha  occ. eigenvalues --  -14.56594 -14.53315 -14.48622 -14.48070 -14.47852
 Alpha  occ. eigenvalues --  -14.47799 -10.43010 -10.42529 -10.40572 -10.37265
 Alpha  occ. eigenvalues --  -10.35971 -10.35949 -10.35896 -10.35868 -10.35813
 Alpha  occ. eigenvalues --  -10.35703 -10.35486 -10.35396 -10.35285 -10.35087
 Alpha  occ. eigenvalues --  -10.34915 -10.33606 -10.33395 -10.33325 -10.33243
 Alpha  occ. eigenvalues --  -10.32813 -10.32673 -10.32566 -10.32545 -10.32520
 Alpha  occ. eigenvalues --  -10.32520 -10.32356 -10.32338 -10.32319 -10.32218
 Alpha  occ. eigenvalues --  -10.32055 -10.31988 -10.31765 -10.31648 -10.31559
 Alpha  occ. eigenvalues --  -10.30874 -10.30315 -10.30276 -10.30143 -10.29826
 Alpha  occ. eigenvalues --  -10.29378 -10.29284  -8.13538  -6.07150  -6.06867
 Alpha  occ. eigenvalues --   -6.06396  -3.72720  -2.52337  -2.46880  -2.46514
 Alpha  occ. eigenvalues --   -1.24655  -1.24030  -1.17768  -1.10508  -1.09940
 Alpha  occ. eigenvalues --   -1.09484  -1.08537  -1.08226  -1.07295  -1.03272
 Alpha  occ. eigenvalues --   -0.94977  -0.94395  -0.92994  -0.92528  -0.92190
 Alpha  occ. eigenvalues --   -0.91904  -0.91822  -0.91526  -0.91219  -0.88393
 Alpha  occ. eigenvalues --   -0.87708  -0.87140  -0.86606  -0.86275  -0.85850
 Alpha  occ. eigenvalues --   -0.83481  -0.82911  -0.81343  -0.81065  -0.80467
 Alpha  occ. eigenvalues --   -0.79080  -0.78100  -0.77762  -0.77585  -0.76609
 Alpha  occ. eigenvalues --   -0.76505  -0.76198  -0.75079  -0.74040  -0.73783
 Alpha  occ. eigenvalues --   -0.72224  -0.71773  -0.71238  -0.69664  -0.69374
 Alpha  occ. eigenvalues --   -0.67933  -0.66162  -0.65130  -0.64710  -0.63654
 Alpha  occ. eigenvalues --   -0.63109  -0.62623  -0.62305  -0.61503  -0.60186
 Alpha  occ. eigenvalues --   -0.59732  -0.59473  -0.59356  -0.59208  -0.58703
 Alpha  occ. eigenvalues --   -0.58464  -0.58280  -0.58037  -0.57338  -0.57029
 Alpha  occ. eigenvalues --   -0.56359  -0.56229  -0.55586  -0.55272  -0.54967
 Alpha  occ. eigenvalues --   -0.54872  -0.54702  -0.54498  -0.54244  -0.54097
 Alpha  occ. eigenvalues --   -0.53947  -0.53723  -0.53531  -0.53332  -0.53264
 Alpha  occ. eigenvalues --   -0.53055  -0.52794  -0.52338  -0.52153  -0.51973
 Alpha  occ. eigenvalues --   -0.51875  -0.51611  -0.51518  -0.51412  -0.51101
 Alpha  occ. eigenvalues --   -0.51068  -0.50837  -0.50400  -0.50326  -0.49865
 Alpha  occ. eigenvalues --   -0.49741  -0.49566  -0.49386  -0.49066  -0.48945
 Alpha  occ. eigenvalues --   -0.48696  -0.48365  -0.48217  -0.48050  -0.47742
 Alpha  occ. eigenvalues --   -0.47517  -0.47299  -0.46983  -0.46489  -0.46329
 Alpha  occ. eigenvalues --   -0.46117  -0.45639  -0.45523  -0.45381  -0.45190
 Alpha  occ. eigenvalues --   -0.44874  -0.44696  -0.44532  -0.43728  -0.43442
 Alpha  occ. eigenvalues --   -0.43173  -0.42624  -0.42433  -0.41441  -0.40905
 Alpha  occ. eigenvalues --   -0.40599  -0.39463  -0.39012  -0.38877  -0.37527
 Alpha  occ. eigenvalues --   -0.36552  -0.35988  -0.35424  -0.35349  -0.34735
 Alpha  occ. eigenvalues --   -0.33451  -0.33326  -0.31708  -0.31378  -0.30403
 Alpha  occ. eigenvalues --   -0.30266  -0.28916
 Alpha virt. eigenvalues --   -0.21931  -0.18110  -0.17969  -0.11438  -0.10208
 Alpha virt. eigenvalues --   -0.09314  -0.07939  -0.07741  -0.07076  -0.06299
 Alpha virt. eigenvalues --   -0.06034  -0.05705  -0.05334  -0.04673  -0.04347
 Alpha virt. eigenvalues --   -0.03970  -0.03607  -0.03467  -0.03191  -0.02969
 Alpha virt. eigenvalues --   -0.02730  -0.02277  -0.02103  -0.02022  -0.01448
 Alpha virt. eigenvalues --   -0.01216  -0.01047  -0.00761  -0.00316  -0.00138
 Alpha virt. eigenvalues --   -0.00003   0.00505   0.00591   0.01172   0.01313
 Alpha virt. eigenvalues --    0.01520   0.01749   0.02224   0.02539   0.02723
 Alpha virt. eigenvalues --    0.02853   0.03096   0.03201   0.03512   0.03714
 Alpha virt. eigenvalues --    0.03762   0.03928   0.04218   0.04503   0.04615
 Alpha virt. eigenvalues --    0.04711   0.04889   0.05231   0.05430   0.05837
 Alpha virt. eigenvalues --    0.05851   0.05991   0.06045   0.06166   0.06335
 Alpha virt. eigenvalues --    0.06428   0.06705   0.06903   0.06989   0.07090
 Alpha virt. eigenvalues --    0.07270   0.07783   0.07901   0.07987   0.08098
 Alpha virt. eigenvalues --    0.08236   0.08388   0.08728   0.08796   0.09006
 Alpha virt. eigenvalues --    0.09104   0.09227   0.09568   0.09813   0.09932
 Alpha virt. eigenvalues --    0.10341   0.10517   0.10712   0.10989   0.11101
 Alpha virt. eigenvalues --    0.11540   0.11677   0.11898   0.12022   0.12372
 Alpha virt. eigenvalues --    0.12683   0.12903   0.13007   0.13406   0.13604
 Alpha virt. eigenvalues --    0.13693   0.14008   0.14063   0.14225   0.14382
 Alpha virt. eigenvalues --    0.14454   0.14641   0.14825   0.15001   0.15355
 Alpha virt. eigenvalues --    0.15392   0.15768   0.15896   0.16337   0.16393
 Alpha virt. eigenvalues --    0.16452   0.16622   0.17070   0.17266   0.17451
 Alpha virt. eigenvalues --    0.17711   0.17804   0.18006   0.18113   0.18592
 Alpha virt. eigenvalues --    0.18759   0.18982   0.19246   0.19298   0.19597
 Alpha virt. eigenvalues --    0.19677   0.19914   0.19944   0.20123   0.20487
 Alpha virt. eigenvalues --    0.20761   0.21032   0.21287   0.21431   0.21587
 Alpha virt. eigenvalues --    0.21990   0.22079   0.22244   0.22454   0.22648
 Alpha virt. eigenvalues --    0.23063   0.23260   0.23314   0.23664   0.23792
 Alpha virt. eigenvalues --    0.24048   0.24207   0.24430   0.24592   0.24823
 Alpha virt. eigenvalues --    0.25062   0.25159   0.25166   0.25640   0.25871
 Alpha virt. eigenvalues --    0.25990   0.26157   0.26691   0.26781   0.27000
 Alpha virt. eigenvalues --    0.27360   0.27429   0.27688   0.28044   0.28259
 Alpha virt. eigenvalues --    0.28464   0.28658   0.28752   0.28891   0.29003
 Alpha virt. eigenvalues --    0.29439   0.29694   0.29836   0.30078   0.30333
 Alpha virt. eigenvalues --    0.30563   0.30613   0.30774   0.30988   0.31165
 Alpha virt. eigenvalues --    0.31455   0.31708   0.31744   0.31922   0.32140
 Alpha virt. eigenvalues --    0.32617   0.32725   0.32931   0.33123   0.33162
 Alpha virt. eigenvalues --    0.33368   0.33487   0.33584   0.33899   0.34046
 Alpha virt. eigenvalues --    0.34234   0.34343   0.34395   0.34617   0.34727
 Alpha virt. eigenvalues --    0.34844   0.35235   0.35592   0.35625   0.35771
 Alpha virt. eigenvalues --    0.36053   0.36190   0.36259   0.36557   0.36671
 Alpha virt. eigenvalues --    0.36962   0.37190   0.37252   0.37374   0.37434
 Alpha virt. eigenvalues --    0.37550   0.37701   0.37821   0.37967   0.38015
 Alpha virt. eigenvalues --    0.38356   0.38521   0.38543   0.38705   0.38918
 Alpha virt. eigenvalues --    0.39013   0.39080   0.39195   0.39490   0.39735
 Alpha virt. eigenvalues --    0.39938   0.40015   0.40197   0.40397   0.40553
 Alpha virt. eigenvalues --    0.40630   0.40897   0.40977   0.41172   0.41420
 Alpha virt. eigenvalues --    0.41482   0.41670   0.41847   0.41913   0.41982
 Alpha virt. eigenvalues --    0.42230   0.42392   0.42537   0.42882   0.43002
 Alpha virt. eigenvalues --    0.43259   0.43412   0.43655   0.43823   0.44024
 Alpha virt. eigenvalues --    0.44175   0.44261   0.44526   0.44718   0.44843
 Alpha virt. eigenvalues --    0.45145   0.45455   0.45515   0.45660   0.45860
 Alpha virt. eigenvalues --    0.45951   0.46114   0.46331   0.46568   0.47016
 Alpha virt. eigenvalues --    0.47085   0.47439   0.47626   0.47855   0.48137
 Alpha virt. eigenvalues --    0.48271   0.48496   0.48569   0.48808   0.49113
 Alpha virt. eigenvalues --    0.49323   0.49582   0.49699   0.49836   0.50351
 Alpha virt. eigenvalues --    0.50454   0.50705   0.50840   0.51248   0.51337
 Alpha virt. eigenvalues --    0.51847   0.52124   0.52244   0.52399   0.52612
 Alpha virt. eigenvalues --    0.52916   0.52997   0.53474   0.53710   0.53842
 Alpha virt. eigenvalues --    0.54076   0.54277   0.54548   0.54620   0.55107
 Alpha virt. eigenvalues --    0.55280   0.55555   0.55735   0.55894   0.56268
 Alpha virt. eigenvalues --    0.56358   0.56480   0.56670   0.57228   0.57699
 Alpha virt. eigenvalues --    0.57803   0.58136   0.58425   0.58598   0.58929
 Alpha virt. eigenvalues --    0.59081   0.59265   0.59671   0.59971   0.60223
 Alpha virt. eigenvalues --    0.60296   0.60658   0.60843   0.61205   0.61350
 Alpha virt. eigenvalues --    0.61498   0.61873   0.62194   0.62440   0.62749
 Alpha virt. eigenvalues --    0.62951   0.63131   0.63357   0.63828   0.64067
 Alpha virt. eigenvalues --    0.64311   0.64592   0.64682   0.65005   0.65091
 Alpha virt. eigenvalues --    0.65630   0.65924   0.66257   0.66631   0.66711
 Alpha virt. eigenvalues --    0.67347   0.67445   0.67831   0.67991   0.68223
 Alpha virt. eigenvalues --    0.68458   0.68808   0.68879   0.69389   0.69470
 Alpha virt. eigenvalues --    0.69930   0.70299   0.70494   0.71452   0.71549
 Alpha virt. eigenvalues --    0.71912   0.72161   0.72390   0.72471   0.72846
 Alpha virt. eigenvalues --    0.73208   0.73497   0.73697   0.74031   0.74375
 Alpha virt. eigenvalues --    0.74959   0.75182   0.75281   0.75720   0.75998
 Alpha virt. eigenvalues --    0.76522   0.76623   0.76977   0.77188   0.77424
 Alpha virt. eigenvalues --    0.78075   0.78137   0.78231   0.78608   0.78863
 Alpha virt. eigenvalues --    0.79022   0.79440   0.79719   0.79986   0.80223
 Alpha virt. eigenvalues --    0.80926   0.81137   0.81245   0.81545   0.81745
 Alpha virt. eigenvalues --    0.82030   0.82310   0.82411   0.82963   0.83111
 Alpha virt. eigenvalues --    0.83267   0.83839   0.84000   0.84124   0.84505
 Alpha virt. eigenvalues --    0.84626   0.84888   0.85075   0.85575   0.85777
 Alpha virt. eigenvalues --    0.85845   0.86658   0.86826   0.87019   0.87221
 Alpha virt. eigenvalues --    0.87456   0.87653   0.87993   0.88127   0.88300
 Alpha virt. eigenvalues --    0.88570   0.88659   0.88848   0.89076   0.89229
 Alpha virt. eigenvalues --    0.89750   0.89917   0.90059   0.90237   0.90463
 Alpha virt. eigenvalues --    0.90851   0.91158   0.91863   0.92093   0.92244
 Alpha virt. eigenvalues --    0.92530   0.92973   0.93095   0.93385   0.93672
 Alpha virt. eigenvalues --    0.94016   0.94325   0.94354   0.94675   0.94758
 Alpha virt. eigenvalues --    0.95213   0.95503   0.95973   0.96423   0.96442
 Alpha virt. eigenvalues --    0.96771   0.97110   0.97327   0.97493   0.97810
 Alpha virt. eigenvalues --    0.97892   0.98116   0.98239   0.98583   0.98649
 Alpha virt. eigenvalues --    0.99232   0.99500   0.99648   1.00039   1.00379
 Alpha virt. eigenvalues --    1.00621   1.00939   1.01312   1.01554   1.01811
 Alpha virt. eigenvalues --    1.02078   1.02572   1.02700   1.03039   1.03205
 Alpha virt. eigenvalues --    1.03588   1.04184   1.04336   1.04574   1.04867
 Alpha virt. eigenvalues --    1.05223   1.05407   1.05859   1.06350   1.06682
 Alpha virt. eigenvalues --    1.06924   1.07273   1.07351   1.07876   1.08106
 Alpha virt. eigenvalues --    1.08423   1.08840   1.09263   1.09490   1.10227
 Alpha virt. eigenvalues --    1.10493   1.10984   1.11240   1.11365   1.11855
 Alpha virt. eigenvalues --    1.12090   1.12474   1.12794   1.13171   1.13579
 Alpha virt. eigenvalues --    1.13966   1.14209   1.14485   1.14720   1.15063
 Alpha virt. eigenvalues --    1.15265   1.15753   1.15842   1.16206   1.16523
 Alpha virt. eigenvalues --    1.17046   1.17523   1.17906   1.18075   1.18852
 Alpha virt. eigenvalues --    1.19033   1.19327   1.19601   1.19681   1.20057
 Alpha virt. eigenvalues --    1.20338   1.20691   1.21324   1.21477   1.21706
 Alpha virt. eigenvalues --    1.22078   1.22499   1.23153   1.23265   1.23874
 Alpha virt. eigenvalues --    1.23897   1.24415   1.24603   1.24795   1.25136
 Alpha virt. eigenvalues --    1.25655   1.25939   1.26445   1.27010   1.27115
 Alpha virt. eigenvalues --    1.27582   1.28079   1.28358   1.28875   1.29246
 Alpha virt. eigenvalues --    1.29808   1.30387   1.30941   1.31058   1.31563
 Alpha virt. eigenvalues --    1.31955   1.32079   1.32492   1.32926   1.33130
 Alpha virt. eigenvalues --    1.33828   1.34325   1.34517   1.34986   1.35121
 Alpha virt. eigenvalues --    1.35733   1.35931   1.36526   1.36912   1.37468
 Alpha virt. eigenvalues --    1.37824   1.38190   1.38443   1.38863   1.39104
 Alpha virt. eigenvalues --    1.39373   1.39787   1.40008   1.40233   1.40574
 Alpha virt. eigenvalues --    1.40844   1.40862   1.41442   1.41779   1.42216
 Alpha virt. eigenvalues --    1.42365   1.42573   1.43252   1.43358   1.43529
 Alpha virt. eigenvalues --    1.43801   1.44130   1.44518   1.44881   1.45026
 Alpha virt. eigenvalues --    1.45270   1.45599   1.46121   1.46381   1.46504
 Alpha virt. eigenvalues --    1.46601   1.47059   1.47102   1.47324   1.47413
 Alpha virt. eigenvalues --    1.47661   1.47831   1.48154   1.48273   1.48588
 Alpha virt. eigenvalues --    1.48787   1.48935   1.49252   1.49402   1.49576
 Alpha virt. eigenvalues --    1.50005   1.50147   1.50474   1.50723   1.51019
 Alpha virt. eigenvalues --    1.51273   1.51545   1.51949   1.52253   1.52308
 Alpha virt. eigenvalues --    1.52599   1.52842   1.53179   1.53245   1.53442
 Alpha virt. eigenvalues --    1.53595   1.53823   1.54082   1.54548   1.54646
 Alpha virt. eigenvalues --    1.54872   1.55059   1.55238   1.55542   1.55635
 Alpha virt. eigenvalues --    1.55986   1.56174   1.56286   1.56854   1.57093
 Alpha virt. eigenvalues --    1.57302   1.57359   1.57632   1.58087   1.58219
 Alpha virt. eigenvalues --    1.58473   1.58833   1.59139   1.59304   1.59614
 Alpha virt. eigenvalues --    1.59851   1.60123   1.60377   1.60621   1.60820
 Alpha virt. eigenvalues --    1.61158   1.61470   1.61770   1.62238   1.62402
 Alpha virt. eigenvalues --    1.62644   1.62838   1.62950   1.63023   1.63449
 Alpha virt. eigenvalues --    1.63809   1.64096   1.64422   1.64944   1.65065
 Alpha virt. eigenvalues --    1.65510   1.66103   1.66149   1.66595   1.66661
 Alpha virt. eigenvalues --    1.67215   1.67339   1.67695   1.67836   1.68282
 Alpha virt. eigenvalues --    1.68373   1.68524   1.69104   1.69532   1.69957
 Alpha virt. eigenvalues --    1.70245   1.70972   1.71278   1.71551   1.71925
 Alpha virt. eigenvalues --    1.72304   1.72587   1.72776   1.73418   1.73720
 Alpha virt. eigenvalues --    1.73916   1.74180   1.74666   1.74964   1.75367
 Alpha virt. eigenvalues --    1.76045   1.76264   1.76682   1.76752   1.77308
 Alpha virt. eigenvalues --    1.77746   1.78032   1.78363   1.78709   1.78983
 Alpha virt. eigenvalues --    1.79400   1.79680   1.79964   1.80139   1.80398
 Alpha virt. eigenvalues --    1.81046   1.81372   1.81418   1.81702   1.82197
 Alpha virt. eigenvalues --    1.82778   1.83277   1.83586   1.83758   1.83828
 Alpha virt. eigenvalues --    1.84212   1.84398   1.85167   1.85608   1.85964
 Alpha virt. eigenvalues --    1.86758   1.86935   1.87288   1.87450   1.87791
 Alpha virt. eigenvalues --    1.87928   1.88458   1.88749   1.89146   1.89291
 Alpha virt. eigenvalues --    1.89825   1.90135   1.90419   1.90571   1.90820
 Alpha virt. eigenvalues --    1.91086   1.91559   1.91746   1.91977   1.92378
 Alpha virt. eigenvalues --    1.92618   1.92876   1.93368   1.93713   1.94262
 Alpha virt. eigenvalues --    1.94450   1.94870   1.95364   1.95453   1.95717
 Alpha virt. eigenvalues --    1.96119   1.96886   1.97125   1.97228   1.98074
 Alpha virt. eigenvalues --    1.98401   1.98596   1.98835   1.99345   1.99559
 Alpha virt. eigenvalues --    1.99942   2.00200   2.00320   2.00521   2.00811
 Alpha virt. eigenvalues --    2.01186   2.01321   2.01874   2.01996   2.02203
 Alpha virt. eigenvalues --    2.02891   2.03238   2.03508   2.03947   2.04426
 Alpha virt. eigenvalues --    2.04615   2.04711   2.04921   2.05265   2.05713
 Alpha virt. eigenvalues --    2.05933   2.05997   2.06472   2.06767   2.06800
 Alpha virt. eigenvalues --    2.07333   2.07730   2.08194   2.08432   2.08662
 Alpha virt. eigenvalues --    2.09145   2.09619   2.10068   2.10228   2.10635
 Alpha virt. eigenvalues --    2.11047   2.11279   2.11549   2.11887   2.12514
 Alpha virt. eigenvalues --    2.12870   2.13101   2.13462   2.13776   2.14289
 Alpha virt. eigenvalues --    2.14458   2.14807   2.15100   2.15522   2.15862
 Alpha virt. eigenvalues --    2.16180   2.16628   2.17009   2.17540   2.18277
 Alpha virt. eigenvalues --    2.18729   2.19035   2.19218   2.19512   2.19815
 Alpha virt. eigenvalues --    2.20069   2.20406   2.20482   2.20835   2.21437
 Alpha virt. eigenvalues --    2.21803   2.22260   2.22566   2.22792   2.23557
 Alpha virt. eigenvalues --    2.23690   2.23904   2.24094   2.24573   2.24827
 Alpha virt. eigenvalues --    2.25503   2.25650   2.25938   2.26592   2.26674
 Alpha virt. eigenvalues --    2.27011   2.27361   2.27603   2.27731   2.27886
 Alpha virt. eigenvalues --    2.28363   2.28626   2.28949   2.29078   2.29404
 Alpha virt. eigenvalues --    2.30001   2.30283   2.30336   2.30711   2.30933
 Alpha virt. eigenvalues --    2.31098   2.31427   2.31689   2.32017   2.32635
 Alpha virt. eigenvalues --    2.32763   2.33133   2.33522   2.33608   2.33761
 Alpha virt. eigenvalues --    2.34625   2.34671   2.34970   2.35362   2.35512
 Alpha virt. eigenvalues --    2.35658   2.35958   2.36057   2.37004   2.37615
 Alpha virt. eigenvalues --    2.37753   2.38062   2.38650   2.38801   2.39226
 Alpha virt. eigenvalues --    2.39470   2.39888   2.40129   2.40698   2.41455
 Alpha virt. eigenvalues --    2.41949   2.42142   2.42439   2.42651   2.42921
 Alpha virt. eigenvalues --    2.43268   2.43444   2.43944   2.44683   2.45104
 Alpha virt. eigenvalues --    2.45334   2.45701   2.46155   2.46298   2.46705
 Alpha virt. eigenvalues --    2.47061   2.47306   2.47749   2.47929   2.48144
 Alpha virt. eigenvalues --    2.48249   2.48359   2.48907   2.49025   2.49125
 Alpha virt. eigenvalues --    2.49443   2.50066   2.50270   2.50456   2.50595
 Alpha virt. eigenvalues --    2.50981   2.51157   2.51493   2.52213   2.52331
 Alpha virt. eigenvalues --    2.52802   2.53131   2.53618   2.53665   2.53810
 Alpha virt. eigenvalues --    2.54156   2.54326   2.54720   2.55014   2.55326
 Alpha virt. eigenvalues --    2.55489   2.55710   2.55803   2.56073   2.56437
 Alpha virt. eigenvalues --    2.56620   2.57142   2.57617   2.57897   2.58011
 Alpha virt. eigenvalues --    2.58185   2.58548   2.58635   2.59052   2.59416
 Alpha virt. eigenvalues --    2.59563   2.60202   2.60420   2.60612   2.60889
 Alpha virt. eigenvalues --    2.61153   2.61653   2.62065   2.62820   2.62893
 Alpha virt. eigenvalues --    2.63005   2.63493   2.63948   2.64224   2.64394
 Alpha virt. eigenvalues --    2.64850   2.65073   2.65472   2.65819   2.66123
 Alpha virt. eigenvalues --    2.66504   2.66690   2.66967   2.67522   2.67613
 Alpha virt. eigenvalues --    2.67765   2.67922   2.68408   2.68988   2.69220
 Alpha virt. eigenvalues --    2.69301   2.69582   2.70115   2.70362   2.70782
 Alpha virt. eigenvalues --    2.71512   2.71726   2.72152   2.72659   2.73085
 Alpha virt. eigenvalues --    2.73666   2.73861   2.74061   2.74246   2.74410
 Alpha virt. eigenvalues --    2.74784   2.75131   2.75519   2.75757   2.76213
 Alpha virt. eigenvalues --    2.76338   2.76812   2.77371   2.77773   2.78455
 Alpha virt. eigenvalues --    2.78604   2.79037   2.79270   2.79711   2.80226
 Alpha virt. eigenvalues --    2.80439   2.80546   2.80833   2.81042   2.82007
 Alpha virt. eigenvalues --    2.82183   2.82398   2.82529   2.82851   2.83622
 Alpha virt. eigenvalues --    2.83758   2.84244   2.84500   2.84719   2.84886
 Alpha virt. eigenvalues --    2.85043   2.85184   2.85716   2.85986   2.86071
 Alpha virt. eigenvalues --    2.86511   2.86971   2.87276   2.87607   2.87762
 Alpha virt. eigenvalues --    2.87940   2.88161   2.88987   2.89188   2.89285
 Alpha virt. eigenvalues --    2.89538   2.90174   2.90664   2.90767   2.91212
 Alpha virt. eigenvalues --    2.91590   2.91925   2.92045   2.92379   2.92694
 Alpha virt. eigenvalues --    2.92871   2.93527   2.93812   2.93950   2.94212
 Alpha virt. eigenvalues --    2.94845   2.94987   2.95195   2.95636   2.95874
 Alpha virt. eigenvalues --    2.96161   2.96413   2.96712   2.96799   2.97383
 Alpha virt. eigenvalues --    2.97569   2.97876   2.98042   2.98405   2.98675
 Alpha virt. eigenvalues --    2.98947   2.99222   2.99360   2.99546   3.00034
 Alpha virt. eigenvalues --    3.00378   3.00523   3.00616   3.00995   3.01269
 Alpha virt. eigenvalues --    3.01421   3.01595   3.01912   3.02027   3.02465
 Alpha virt. eigenvalues --    3.02738   3.03018   3.03203   3.03435   3.03529
 Alpha virt. eigenvalues --    3.03736   3.04123   3.04584   3.04866   3.05163
 Alpha virt. eigenvalues --    3.05368   3.05389   3.05810   3.06488   3.06599
 Alpha virt. eigenvalues --    3.07002   3.07058   3.07220   3.07445   3.07929
 Alpha virt. eigenvalues --    3.08262   3.08391   3.08503   3.08719   3.09194
 Alpha virt. eigenvalues --    3.09484   3.09514   3.09542   3.09775   3.10592
 Alpha virt. eigenvalues --    3.10662   3.10934   3.11112   3.11192   3.11373
 Alpha virt. eigenvalues --    3.11641   3.11967   3.12617   3.12743   3.12984
 Alpha virt. eigenvalues --    3.13245   3.13538   3.13993   3.14071   3.14462
 Alpha virt. eigenvalues --    3.14716   3.15250   3.15369   3.15809   3.15868
 Alpha virt. eigenvalues --    3.16195   3.16425   3.16625   3.17040   3.17230
 Alpha virt. eigenvalues --    3.17576   3.17965   3.18092   3.18682   3.18823
 Alpha virt. eigenvalues --    3.19066   3.19230   3.19312   3.19689   3.19826
 Alpha virt. eigenvalues --    3.20025   3.20387   3.20658   3.20799   3.21237
 Alpha virt. eigenvalues --    3.21573   3.21622   3.21882   3.22262   3.22519
 Alpha virt. eigenvalues --    3.22690   3.22861   3.22905   3.23038   3.23676
 Alpha virt. eigenvalues --    3.23783   3.23995   3.24346   3.24466   3.24767
 Alpha virt. eigenvalues --    3.24964   3.25122   3.25299   3.25782   3.25838
 Alpha virt. eigenvalues --    3.25956   3.26209   3.26518   3.27041   3.27389
 Alpha virt. eigenvalues --    3.27495   3.27609   3.27955   3.27994   3.28424
 Alpha virt. eigenvalues --    3.28609   3.28757   3.28844   3.29070   3.29343
 Alpha virt. eigenvalues --    3.29438   3.29900   3.30067   3.30257   3.30441
 Alpha virt. eigenvalues --    3.30616   3.30736   3.30790   3.31125   3.31381
 Alpha virt. eigenvalues --    3.31687   3.31970   3.32347   3.32409   3.33072
 Alpha virt. eigenvalues --    3.33287   3.33386   3.33502   3.33865   3.34082
 Alpha virt. eigenvalues --    3.34678   3.34776   3.34814   3.35013   3.35383
 Alpha virt. eigenvalues --    3.35907   3.36115   3.36539   3.37010   3.37487
 Alpha virt. eigenvalues --    3.37706   3.38078   3.38336   3.38934   3.39368
 Alpha virt. eigenvalues --    3.39757   3.39862   3.40116   3.40171   3.40658
 Alpha virt. eigenvalues --    3.41032   3.41432   3.41771   3.41894   3.42029
 Alpha virt. eigenvalues --    3.42296   3.42823   3.43221   3.43441   3.43623
 Alpha virt. eigenvalues --    3.43992   3.44137   3.45016   3.45326   3.45569
 Alpha virt. eigenvalues --    3.45855   3.46135   3.46609   3.46968   3.47133
 Alpha virt. eigenvalues --    3.47390   3.47705   3.48115   3.48349   3.48749
 Alpha virt. eigenvalues --    3.49088   3.49574   3.49652   3.50250   3.50341
 Alpha virt. eigenvalues --    3.50736   3.51033   3.51803   3.52307   3.52937
 Alpha virt. eigenvalues --    3.53080   3.53374   3.53809   3.53968   3.54565
 Alpha virt. eigenvalues --    3.54713   3.55055   3.55248   3.55460   3.55587
 Alpha virt. eigenvalues --    3.56141   3.56506   3.56703   3.57212   3.57534
 Alpha virt. eigenvalues --    3.58014   3.58218   3.58815   3.59228   3.59290
 Alpha virt. eigenvalues --    3.59836   3.60057   3.60576   3.60783   3.61088
 Alpha virt. eigenvalues --    3.61404   3.61705   3.61928   3.62192   3.63086
 Alpha virt. eigenvalues --    3.63269   3.63588   3.63752   3.64290   3.64770
 Alpha virt. eigenvalues --    3.64918   3.65378   3.65465   3.66160   3.66568
 Alpha virt. eigenvalues --    3.66914   3.67632   3.68058   3.68372   3.68925
 Alpha virt. eigenvalues --    3.69602   3.69691   3.70032   3.70648   3.70816
 Alpha virt. eigenvalues --    3.71433   3.72155   3.72409   3.72682   3.73312
 Alpha virt. eigenvalues --    3.73555   3.73700   3.74925   3.75029   3.75411
 Alpha virt. eigenvalues --    3.75736   3.75998   3.76552   3.77260   3.77564
 Alpha virt. eigenvalues --    3.77875   3.78338   3.78794   3.79041   3.79313
 Alpha virt. eigenvalues --    3.79555   3.80080   3.80390   3.80780   3.81102
 Alpha virt. eigenvalues --    3.81809   3.82005   3.82490   3.82816   3.83436
 Alpha virt. eigenvalues --    3.83951   3.84228   3.85198   3.85295   3.85760
 Alpha virt. eigenvalues --    3.86216   3.86382   3.87032   3.87099   3.87708
 Alpha virt. eigenvalues --    3.87791   3.88427   3.88844   3.89205   3.89554
 Alpha virt. eigenvalues --    3.89637   3.90151   3.90404   3.90959   3.91473
 Alpha virt. eigenvalues --    3.91768   3.92351   3.92711   3.92916   3.93890
 Alpha virt. eigenvalues --    3.94220   3.94654   3.94859   3.94994   3.95844
 Alpha virt. eigenvalues --    3.96430   3.96672   3.97256   3.97956   3.98033
 Alpha virt. eigenvalues --    3.98473   3.99496   3.99760   4.00014   4.00451
 Alpha virt. eigenvalues --    4.00554   4.01729   4.01881   4.03233   4.03771
 Alpha virt. eigenvalues --    4.04114   4.04641   4.04771   4.05600   4.06204
 Alpha virt. eigenvalues --    4.06550   4.07101   4.07705   4.08065   4.08671
 Alpha virt. eigenvalues --    4.09347   4.10152   4.10786   4.11227   4.12023
 Alpha virt. eigenvalues --    4.12477   4.13156   4.13325   4.13688   4.13931
 Alpha virt. eigenvalues --    4.14362   4.15059   4.15308   4.15890   4.16459
 Alpha virt. eigenvalues --    4.16881   4.17353   4.17524   4.18522   4.18790
 Alpha virt. eigenvalues --    4.19087   4.19607   4.19997   4.20458   4.21603
 Alpha virt. eigenvalues --    4.22225   4.22695   4.22846   4.23550   4.23825
 Alpha virt. eigenvalues --    4.24060   4.24732   4.24860   4.25552   4.26017
 Alpha virt. eigenvalues --    4.26371   4.26655   4.26916   4.27022   4.27560
 Alpha virt. eigenvalues --    4.28474   4.28993   4.29389   4.29625   4.30547
 Alpha virt. eigenvalues --    4.30758   4.30975   4.31910   4.32011   4.32623
 Alpha virt. eigenvalues --    4.32637   4.34902   4.35057   4.35486   4.35940
 Alpha virt. eigenvalues --    4.36930   4.37250   4.38114   4.38340   4.39052
 Alpha virt. eigenvalues --    4.39502   4.39823   4.40369   4.40869   4.41024
 Alpha virt. eigenvalues --    4.41470   4.42404   4.42731   4.43448   4.44024
 Alpha virt. eigenvalues --    4.44078   4.44258   4.44724   4.45151   4.45967
 Alpha virt. eigenvalues --    4.46639   4.46759   4.47997   4.48389   4.48918
 Alpha virt. eigenvalues --    4.49022   4.50323   4.50750   4.51464   4.52456
 Alpha virt. eigenvalues --    4.53596   4.54156   4.54567   4.54808   4.55974
 Alpha virt. eigenvalues --    4.56846   4.57453   4.57641   4.58195   4.58733
 Alpha virt. eigenvalues --    4.59357   4.59963   4.60532   4.61293   4.61847
 Alpha virt. eigenvalues --    4.62924   4.63125   4.63724   4.65558   4.66296
 Alpha virt. eigenvalues --    4.67119   4.69169   4.69971   4.70636   4.71375
 Alpha virt. eigenvalues --    4.71627   4.72093   4.73311   4.74014   4.74268
 Alpha virt. eigenvalues --    4.74747   4.75365   4.75589   4.76329   4.76399
 Alpha virt. eigenvalues --    4.76842   4.77685   4.78765   4.79764   4.80440
 Alpha virt. eigenvalues --    4.80640   4.81135   4.81714   4.81932   4.82799
 Alpha virt. eigenvalues --    4.84024   4.84944   4.85224   4.86110   4.86457
 Alpha virt. eigenvalues --    4.87089   4.88226   4.88299   4.89471   4.90461
 Alpha virt. eigenvalues --    4.90864   4.91547   4.93102   4.93676   4.94505
 Alpha virt. eigenvalues --    4.95065   4.95347   4.97137   4.98402   4.99278
 Alpha virt. eigenvalues --    5.00545   5.01984   5.02212   5.03375   5.04000
 Alpha virt. eigenvalues --    5.06083   5.06878   5.08757   5.09375   5.09817
 Alpha virt. eigenvalues --    5.10163   5.10351   5.10590   5.12168   5.13060
 Alpha virt. eigenvalues --    5.13451   5.13916   5.14829   5.15609   5.16246
 Alpha virt. eigenvalues --    5.16336   5.17052   5.17921   5.18335   5.19546
 Alpha virt. eigenvalues --    5.21438   5.23203   5.23539   5.24315   5.24724
 Alpha virt. eigenvalues --    5.26029   5.26943   5.28514   5.28706   5.29644
 Alpha virt. eigenvalues --    5.29970   5.30435   5.31088   5.32038   5.33435
 Alpha virt. eigenvalues --    5.34077   5.35068   5.35725   5.36238   5.37572
 Alpha virt. eigenvalues --    5.38509   5.39484   5.41802   5.44213   5.44333
 Alpha virt. eigenvalues --    5.44843   5.47391   5.47930   5.48239   5.49767
 Alpha virt. eigenvalues --    5.50856   5.51658   5.54306   5.54517   5.55096
 Alpha virt. eigenvalues --    5.56348   5.56887   5.57194   5.58571   5.60099
 Alpha virt. eigenvalues --    5.62929   5.63637   5.65251   5.68250   5.70576
 Alpha virt. eigenvalues --    5.71879   5.75476   5.78239   5.80889   5.83272
 Alpha virt. eigenvalues --    5.84274   5.85016   5.86479   5.87473   5.88969
 Alpha virt. eigenvalues --    5.90003   5.90604   5.91676   5.92633   5.94361
 Alpha virt. eigenvalues --    5.96580   5.97212   5.98042   6.01331   6.01814
 Alpha virt. eigenvalues --    6.04991   6.07320   6.10096   6.10810   6.11109
 Alpha virt. eigenvalues --    6.16848   6.20780   6.21485   6.25153   6.27827
 Alpha virt. eigenvalues --    6.29371   6.29788   6.32511   6.37334   6.38484
 Alpha virt. eigenvalues --    6.39224   6.44516   6.45592   6.57953   6.67222
 Alpha virt. eigenvalues --    6.67559   6.68981   6.77148   6.79628   6.86178
 Alpha virt. eigenvalues --    6.86581   6.87837   6.98729   7.05603   7.05989
 Alpha virt. eigenvalues --    7.10574   7.11322   7.18428   7.23674   9.11935
 Alpha virt. eigenvalues --    9.37723   9.52827  20.03318  22.25579  22.29683
 Alpha virt. eigenvalues --   22.30433  22.34032  22.35222  22.39980  22.40917
 Alpha virt. eigenvalues --   22.42110  22.42589  22.47405  22.47937  22.48708
 Alpha virt. eigenvalues --   22.50543  22.53322  22.57837  22.58330  22.59802
 Alpha virt. eigenvalues --   22.76710  22.78245  22.80762  22.84008  22.87376
 Alpha virt. eigenvalues --   22.89449  22.92342  22.96843  23.01098  23.12318
 Alpha virt. eigenvalues --   23.17067  23.19318  23.21270  23.24784  23.31472
 Alpha virt. eigenvalues --   23.33227  23.35095  23.41807  23.48880  23.50367
 Alpha virt. eigenvalues --   23.52977  23.57393  23.61119  23.69020  32.33338
 Alpha virt. eigenvalues --   32.66973  32.90407  32.98200  32.99143  33.01207
 Alpha virt. eigenvalues --   43.86037  43.88105  43.91029  43.91545
  Beta  occ. eigenvalues -- -256.52117 -89.15906 -30.26422 -26.10528 -26.09316
  Beta  occ. eigenvalues --  -26.08413 -19.34879 -19.33067 -19.25906 -19.24376
  Beta  occ. eigenvalues --  -14.56598 -14.53472 -14.48350 -14.47880 -14.47685
  Beta  occ. eigenvalues --  -14.47645 -10.43010 -10.42529 -10.40578 -10.37270
  Beta  occ. eigenvalues --  -10.36007 -10.35938 -10.35894 -10.35882 -10.35790
  Beta  occ. eigenvalues --  -10.35703 -10.35359 -10.35317 -10.35283 -10.35084
  Beta  occ. eigenvalues --  -10.34958 -10.33519 -10.33337 -10.32814 -10.32655
  Beta  occ. eigenvalues --  -10.32612 -10.32524 -10.32498 -10.32492 -10.32325
  Beta  occ. eigenvalues --  -10.32243 -10.32223 -10.32056 -10.32054 -10.31986
  Beta  occ. eigenvalues --  -10.31944 -10.31928 -10.31746 -10.31645 -10.31559
  Beta  occ. eigenvalues --  -10.30872 -10.30329 -10.30275 -10.30155 -10.29832
  Beta  occ. eigenvalues --  -10.29399 -10.29313  -8.13612  -6.07197  -6.06991
  Beta  occ. eigenvalues --   -6.06566  -3.56970  -2.34619  -2.30273  -2.30072
  Beta  occ. eigenvalues --   -1.24655  -1.24030  -1.17830  -1.10508  -1.09939
  Beta  occ. eigenvalues --   -1.09188  -1.08240  -1.08021  -1.07081  -1.03399
  Beta  occ. eigenvalues --   -0.95186  -0.94309  -0.92928  -0.92454  -0.92192
  Beta  occ. eigenvalues --   -0.91733  -0.91175  -0.91075  -0.90763  -0.88281
  Beta  occ. eigenvalues --   -0.87657  -0.87189  -0.86264  -0.85763  -0.84733
  Beta  occ. eigenvalues --   -0.83115  -0.82924  -0.81307  -0.80966  -0.80348
  Beta  occ. eigenvalues --   -0.78990  -0.78160  -0.77742  -0.77558  -0.76619
  Beta  occ. eigenvalues --   -0.76479  -0.76103  -0.75020  -0.73991  -0.73787
  Beta  occ. eigenvalues --   -0.71352  -0.71051  -0.70412  -0.69455  -0.69265
  Beta  occ. eigenvalues --   -0.67907  -0.66053  -0.64836  -0.63907  -0.63436
  Beta  occ. eigenvalues --   -0.62826  -0.62373  -0.61967  -0.61327  -0.59636
  Beta  occ. eigenvalues --   -0.59409  -0.59268  -0.59157  -0.58971  -0.58671
  Beta  occ. eigenvalues --   -0.58288  -0.58190  -0.57821  -0.57250  -0.56959
  Beta  occ. eigenvalues --   -0.56233  -0.56072  -0.55252  -0.55038  -0.54817
  Beta  occ. eigenvalues --   -0.54540  -0.54453  -0.54236  -0.54016  -0.53829
  Beta  occ. eigenvalues --   -0.53667  -0.53381  -0.53309  -0.52966  -0.52744
  Beta  occ. eigenvalues --   -0.52620  -0.52056  -0.51967  -0.51653  -0.51383
  Beta  occ. eigenvalues --   -0.51210  -0.51071  -0.50908  -0.50796  -0.50355
  Beta  occ. eigenvalues --   -0.50249  -0.50149  -0.49771  -0.49306  -0.49293
  Beta  occ. eigenvalues --   -0.49082  -0.48894  -0.48690  -0.48484  -0.48273
  Beta  occ. eigenvalues --   -0.48213  -0.47758  -0.47528  -0.47023  -0.46792
  Beta  occ. eigenvalues --   -0.46203  -0.45977  -0.45775  -0.45648  -0.45284
  Beta  occ. eigenvalues --   -0.45093  -0.44810  -0.44745  -0.44490  -0.44378
  Beta  occ. eigenvalues --   -0.43480  -0.43231  -0.43167  -0.42410  -0.41685
  Beta  occ. eigenvalues --   -0.41025  -0.40777  -0.40650  -0.39446  -0.38823
  Beta  occ. eigenvalues --   -0.38759  -0.37818  -0.37554  -0.35354  -0.35345
  Beta  occ. eigenvalues --   -0.34750  -0.34451  -0.33568  -0.33411  -0.32585
  Beta  occ. eigenvalues --   -0.30185  -0.29718
  Beta virt. eigenvalues --   -0.20017  -0.18451  -0.17112  -0.16652  -0.15272
  Beta virt. eigenvalues --   -0.14166  -0.12861  -0.10625  -0.10324  -0.09709
  Beta virt. eigenvalues --   -0.09281  -0.07923  -0.07658  -0.06990  -0.06219
  Beta virt. eigenvalues --   -0.05983  -0.05591  -0.05155  -0.04456  -0.04223
  Beta virt. eigenvalues --   -0.03929  -0.03500  -0.03353  -0.03052  -0.02792
  Beta virt. eigenvalues --   -0.02431  -0.02141  -0.01926  -0.01766  -0.01185
  Beta virt. eigenvalues --   -0.01142  -0.00973  -0.00679  -0.00226   0.00050
  Beta virt. eigenvalues --    0.00154   0.00593   0.00756   0.01274   0.01462
  Beta virt. eigenvalues --    0.01638   0.01821   0.02317   0.02671   0.02843
  Beta virt. eigenvalues --    0.02985   0.03265   0.03304   0.03594   0.03810
  Beta virt. eigenvalues --    0.03859   0.04064   0.04376   0.04620   0.04684
  Beta virt. eigenvalues --    0.04818   0.05035   0.05448   0.05477   0.05904
  Beta virt. eigenvalues --    0.05988   0.06050   0.06185   0.06342   0.06525
  Beta virt. eigenvalues --    0.06592   0.06826   0.07018   0.07067   0.07290
  Beta virt. eigenvalues --    0.07630   0.07908   0.08047   0.08093   0.08253
  Beta virt. eigenvalues --    0.08449   0.08514   0.08843   0.09021   0.09123
  Beta virt. eigenvalues --    0.09365   0.09464   0.09706   0.10023   0.10170
  Beta virt. eigenvalues --    0.10557   0.10721   0.10880   0.11169   0.11303
  Beta virt. eigenvalues --    0.11673   0.11797   0.12077   0.12373   0.12573
  Beta virt. eigenvalues --    0.12804   0.13111   0.13213   0.13493   0.13749
  Beta virt. eigenvalues --    0.13896   0.14095   0.14310   0.14408   0.14673
  Beta virt. eigenvalues --    0.14856   0.15082   0.15302   0.15489   0.15673
  Beta virt. eigenvalues --    0.15766   0.16081   0.16232   0.16526   0.16668
  Beta virt. eigenvalues --    0.16740   0.17023   0.17314   0.17522   0.17686
  Beta virt. eigenvalues --    0.17894   0.17957   0.18313   0.18364   0.18911
  Beta virt. eigenvalues --    0.19055   0.19278   0.19504   0.19552   0.19895
  Beta virt. eigenvalues --    0.20024   0.20060   0.20335   0.20566   0.20638
  Beta virt. eigenvalues --    0.20938   0.21252   0.21490   0.21574   0.21832
  Beta virt. eigenvalues --    0.22159   0.22367   0.22450   0.22684   0.22851
  Beta virt. eigenvalues --    0.23294   0.23528   0.23684   0.23836   0.24269
  Beta virt. eigenvalues --    0.24513   0.24695   0.24720   0.25020   0.25116
  Beta virt. eigenvalues --    0.25378   0.25607   0.25766   0.26196   0.26372
  Beta virt. eigenvalues --    0.26478   0.26506   0.26887   0.26937   0.27288
  Beta virt. eigenvalues --    0.27537   0.27700   0.28033   0.28259   0.28486
  Beta virt. eigenvalues --    0.28669   0.28893   0.29033   0.29071   0.29415
  Beta virt. eigenvalues --    0.29695   0.29823   0.29985   0.30295   0.30570
  Beta virt. eigenvalues --    0.30755   0.30819   0.31006   0.31175   0.31317
  Beta virt. eigenvalues --    0.31655   0.31919   0.32003   0.32083   0.32310
  Beta virt. eigenvalues --    0.32761   0.32911   0.33021   0.33264   0.33332
  Beta virt. eigenvalues --    0.33557   0.33667   0.33852   0.34041   0.34203
  Beta virt. eigenvalues --    0.34338   0.34468   0.34672   0.34853   0.34985
  Beta virt. eigenvalues --    0.35006   0.35626   0.35766   0.35912   0.35965
  Beta virt. eigenvalues --    0.36268   0.36312   0.36446   0.36775   0.36880
  Beta virt. eigenvalues --    0.37091   0.37322   0.37392   0.37486   0.37571
  Beta virt. eigenvalues --    0.37807   0.37871   0.38021   0.38119   0.38244
  Beta virt. eigenvalues --    0.38521   0.38652   0.38832   0.38889   0.39142
  Beta virt. eigenvalues --    0.39181   0.39256   0.39353   0.39602   0.39894
  Beta virt. eigenvalues --    0.40105   0.40209   0.40332   0.40532   0.40662
  Beta virt. eigenvalues --    0.40817   0.40989   0.41199   0.41243   0.41593
  Beta virt. eigenvalues --    0.41664   0.41802   0.41990   0.42076   0.42166
  Beta virt. eigenvalues --    0.42390   0.42511   0.42652   0.43004   0.43185
  Beta virt. eigenvalues --    0.43455   0.43638   0.43753   0.44033   0.44116
  Beta virt. eigenvalues --    0.44327   0.44406   0.44628   0.44945   0.45203
  Beta virt. eigenvalues --    0.45325   0.45603   0.45690   0.45822   0.46074
  Beta virt. eigenvalues --    0.46175   0.46369   0.46533   0.46705   0.47156
  Beta virt. eigenvalues --    0.47238   0.47564   0.47796   0.48039   0.48232
  Beta virt. eigenvalues --    0.48447   0.48613   0.48721   0.48965   0.49175
  Beta virt. eigenvalues --    0.49520   0.49837   0.49863   0.50048   0.50440
  Beta virt. eigenvalues --    0.50670   0.50922   0.51030   0.51445   0.51494
  Beta virt. eigenvalues --    0.51989   0.52253   0.52475   0.52624   0.52768
  Beta virt. eigenvalues --    0.53067   0.53208   0.53549   0.53910   0.54018
  Beta virt. eigenvalues --    0.54257   0.54479   0.54737   0.54812   0.55248
  Beta virt. eigenvalues --    0.55492   0.55841   0.55904   0.56031   0.56437
  Beta virt. eigenvalues --    0.56559   0.56655   0.56732   0.57440   0.57862
  Beta virt. eigenvalues --    0.57998   0.58295   0.58515   0.58791   0.59121
  Beta virt. eigenvalues --    0.59331   0.59423   0.59856   0.60100   0.60394
  Beta virt. eigenvalues --    0.60505   0.60814   0.60994   0.61323   0.61491
  Beta virt. eigenvalues --    0.61604   0.62029   0.62369   0.62603   0.62803
  Beta virt. eigenvalues --    0.63139   0.63313   0.63531   0.64111   0.64193
  Beta virt. eigenvalues --    0.64465   0.64741   0.64850   0.65176   0.65425
  Beta virt. eigenvalues --    0.65767   0.66153   0.66416   0.66773   0.66876
  Beta virt. eigenvalues --    0.67479   0.67555   0.68061   0.68127   0.68336
  Beta virt. eigenvalues --    0.68562   0.68938   0.69053   0.69477   0.69691
  Beta virt. eigenvalues --    0.70017   0.70465   0.70748   0.71600   0.71737
  Beta virt. eigenvalues --    0.72006   0.72284   0.72516   0.72629   0.72984
  Beta virt. eigenvalues --    0.73401   0.73719   0.73807   0.74237   0.74549
  Beta virt. eigenvalues --    0.75010   0.75351   0.75551   0.75847   0.76122
  Beta virt. eigenvalues --    0.76663   0.76800   0.77168   0.77328   0.77628
[...]
  1700. RY*(   1) H  76                  0.00036     1.22092   
  1701. RY*(   2) H  76                  0.00007     1.90937   
  1702. RY*(   3) H  76                  0.00005     2.10901   
  1703. RY*(   4) H  76                  0.00003     2.33272   
  1704. RY*(   5) H  76                  0.00001     2.96622   
  1705. RY*(   1) H  77                  0.00027     0.95389   
  1706. RY*(   2) H  77                  0.00011     1.60031   
  1707. RY*(   3) H  77                  0.00005     2.12236   
  1708. RY*(   4) H  77                  0.00003     2.34927   
  1709. RY*(   5) H  77                  0.00001     2.94862   
  1710. RY*(   1) H  78                  0.00026     1.16234   
  1711. RY*(   2) H  78                  0.00007     1.40329   
  1712. RY*(   3) H  78                  0.00005     2.14764   
  1713. RY*(   4) H  78                  0.00003     2.42430   
  1714. RY*(   5) H  78                  0.00000     2.96899   
  1715. RY*(   1) H  79                  0.00029     1.00634   
  1716. RY*(   2) H  79                  0.00011     1.57362   
  1717. RY*(   3) H  79                  0.00005     2.11737   
  1718. RY*(   4) H  79                  0.00003     2.33676   
  1719. RY*(   5) H  79                  0.00001     2.94666   
  1720. RY*(   1) H  80                  0.00044     1.52657   
  1721. RY*(   2) H  80                  0.00009     1.75439   
  1722. RY*(   3) H  80                  0.00002     2.00217   
  1723. RY*(   4) H  80                  0.00002     2.16360   
  1724. RY*(   5) H  80                  0.00001     2.95479   
  1725. RY*(   1) H  81                  0.00014     1.55101   
  1726. RY*(   2) H  81                  0.00005     1.68074   
  1727. RY*(   3) H  81                  0.00004     1.75329   
  1728. RY*(   4) H  81                  0.00001     2.21544   
  1729. RY*(   5) H  81                  0.00001     2.15114   
  1730. RY*(   1) H  82                  0.00026     1.11276   
  1731. RY*(   2) H  82                  0.00005     1.57981   
  1732. RY*(   3) H  82                  0.00002     1.95854   
  1733. RY*(   4) H  82                  0.00002     1.87484   
  1734. RY*(   5) H  82                  0.00000     2.75825   
  1735. RY*(   1) H  83                  0.00036     1.05208   
  1736. RY*(   2) H  83                  0.00004     1.72811   
  1737. RY*(   3) H  83                  0.00004     2.06692   
  1738. RY*(   4) H  83                  0.00003     1.76643   
  1739. RY*(   5) H  83                  0.00000     2.87486   
  1740. RY*(   1) H  84                  0.00024     0.92462   
  1741. RY*(   2) H  84                  0.00011     1.65866   
  1742. RY*(   3) H  84                  0.00004     2.11479   
  1743. RY*(   4) H  84                  0.00002     2.35391   
  1744. RY*(   5) H  84                  0.00001     2.94975   
  1745. RY*(   1) H  85                  0.00031     1.03452   
  1746. RY*(   2) H  85                  0.00008     1.71124   
  1747. RY*(   3) H  85                  0.00005     2.13733   
  1748. RY*(   4) H  85                  0.00004     2.34042   
  1749. RY*(   5) H  85                  0.00000     2.96658   
  1750. RY*(   1) H  86                  0.00030     1.00187   
  1751. RY*(   2) H  86                  0.00011     1.57558   
  1752. RY*(   3) H  86                  0.00004     2.14611   
  1753. RY*(   4) H  86                  0.00003     2.29289   
  1754. RY*(   5) H  86                  0.00001     2.95306   
  1755. RY*(   1) H  87                  0.00046     1.16544   
  1756. RY*(   2) H  87                  0.00007     1.86183   
  1757. RY*(   3) H  87                  0.00005     2.25402   
  1758. RY*(   4) H  87                  0.00001     2.74630   
  1759. RY*(   5) H  87                  0.00002     2.24050   
  1760. RY*(   1) H  88                  0.00013     1.55455   
  1761. RY*(   2) H  88                  0.00005     1.49577   
  1762. RY*(   3) H  88                  0.00003     2.01882   
  1763. RY*(   4) H  88                  0.00002     1.54839   
  1764. RY*(   5) H  88                  0.00000     2.73066   
  1765. RY*(   1) H  89                  0.00030     1.08551   
  1766. RY*(   2) H  89                  0.00005     1.62056   
  1767. RY*(   3) H  89                  0.00002     2.00484   
  1768. RY*(   4) H  89                  0.00001     2.35237   
  1769. RY*(   5) H  89                  0.00001     2.22833   
  1770. RY*(   1) H  90                  0.00040     0.92099   
  1771. RY*(   2) H  90                  0.00005     2.08313   
  1772. RY*(   3) H  90                  0.00004     1.58129   
  1773. RY*(   4) H  90                  0.00003     1.96063   
  1774. RY*(   5) H  90                  0.00000     2.86634   
  1775. RY*(   1) H  91                  0.00025     1.03223   
  1776. RY*(   2) H  91                  0.00010     1.81990   
  1777. RY*(   3) H  91                  0.00003     2.08899   
  1778. RY*(   4) H  91                  0.00001     2.32701   
  1779. RY*(   5) H  91                  0.00001     2.30324   
  1780. RY*(   1) H  92                  0.00034     0.92275   
  1781. RY*(   2) H  92                  0.00009     1.82922   
  1782. RY*(   3) H  92                  0.00004     1.89819   
  1783. RY*(   4) H  92                  0.00003     2.10578   
  1784. RY*(   5) H  92                  0.00000     2.89761   
  1785. RY*(   1) H  93                  0.00041     0.98005   
  1786. RY*(   2) H  93                  0.00007     1.56512   
  1787. RY*(   3) H  93                  0.00004     2.06365   
  1788. RY*(   4) H  93                  0.00002     2.01319   
  1789. RY*(   5) H  93                  0.00001     2.82688   
  1790. RY*(   1) H  94                  0.00037     1.42678   
  1791. RY*(   2) H  94                  0.00008     1.67519   
  1792. RY*(   3) H  94                  0.00008     2.61748   
  1793. RY*(   4) H  94                  0.00005     2.21531   
  1794. RY*(   5) H  94                  0.00000     2.83396   
  1795. RY*(   1) H  95                  0.00058     1.40704   
  1796. RY*(   2) H  95                  0.00009     2.57985   
  1797. RY*(   3) H  95                  0.00007     2.25398   
  1798. RY*(   4) H  95                  0.00004     1.34525   
  1799. RY*(   5) H  95                  0.00001     3.05593   
  1800. RY*(   1) H  96                  0.00036     1.34611   
  1801. RY*(   2) H  96                  0.00008     1.81597   
  1802. RY*(   3) H  96                  0.00004     2.31724   
  1803. RY*(   4) H  96                  0.00005     2.30380   
  1804. RY*(   5) H  96                  0.00001     2.92143   
  1805. RY*(   1) H  97                  0.00024     1.09160   
  1806. RY*(   2) H  97                  0.00008     1.88235   
  1807. RY*(   3) H  97                  0.00005     1.96802   
  1808. RY*(   4) H  97                  0.00003     2.44016   
  1809. RY*(   5) H  97                  0.00000     2.78698   
  1810. RY*(   1) H  98                  0.00020     1.05884   
  1811. RY*(   2) H  98                  0.00008     1.74645   
  1812. RY*(   3) H  98                  0.00005     1.94673   
  1813. RY*(   4) H  98                  0.00004     2.27455   
  1814. RY*(   5) H  98                  0.00000     2.94729   
  1820. RY*(   1) H 100                  0.00043     1.58337   
  1821. RY*(   2) H 100                  0.00033     1.01560   
  1822. RY*(   3) H 100                  0.00021     1.99296   
  1823. RY*(   4) H 100                  0.00013     2.09163   
  1824. RY*(   5) H 100                  0.00001     3.17516   
  1825. RY*(   1) H 101                  0.00039     1.55223   
  1826. RY*(   2) H 101                  0.00027     1.91735   
  1827. RY*(   3) H 101                  0.00014     2.15894   
  1828. RY*(   4) H 101                  0.00011     1.37307   
  1829. RY*(   5) H 101                  0.00000     3.15018   
  1844. BD*(   1) C  12 - C  13          0.00423     0.24833   
  1845. BD*(   1) C  12 - H  16          0.00307     0.33008   
  1846. BD*(   1) C  12 - H  17          0.00267     0.32344   
  1847. BD*(   1) C  12 - H  98          0.00258     0.32116   
  1848. BD*(   1) C  13 - S  14          0.01941     0.05704   
  1849. BD*(   1) C  13 - H  18          0.00632     0.26962   
  1850. BD*(   1) C  13 - H  19          0.00918     0.28726   
  1851. BD*(   1) S  14 - C  15          0.01344     0.05412   
  1852. BD*(   1) S  14 -Fe  23          0.04968     0.15544   
  1853. BD*(   1) C  15 - H  20          0.00506     0.25890   
  1854. BD*(   1) C  15 - H  21          0.00710     0.26436   
  1855. BD*(   1) C  15 - H  22          0.00335     0.27547   
  1856. BD*(   1)Fe  23 - N  28          0.03499     0.24982   
  1857. BD*(   1)Fe  23 - N  39          0.06110     0.14525   
  1858. BD*(   1)Fe  23 - N  47          0.03188     0.23197   
  1859. BD*(   1) C  24 - C  29          0.00997     0.43698   
  1860. BD*(   1) C  24 - C  59          0.01017     0.44622   
  1861. BD*(   2) C  24 - C  59          0.19491    -0.06308  1876(v),1935(v),1931(v)
                                                    558(g),1950(r),1472(g)
  1862. BD*(   1) C  24 - H  66          0.00578     0.34396   
  1863. BD*(   1) C  25 - C  32          0.00944     0.42644   
  1864. BD*(   1) C  25 - C  40          0.00941     0.42310   
  1865. BD*(   2) C  25 - C  40          0.20435    -0.06827  1902(v),1899(v),196(v)
                                                    584(g)
  1866. BD*(   1) C  25 - H  67          0.00506     0.34004   
  1867. BD*(   1) C  26 - C  43          0.01015     0.45250   
  1868. BD*(   1) C  26 - C  48          0.01037     0.48076   
  1869. BD*(   2) C  26 - C  48          0.19473    -0.05630  1918(v),1899(v),1872(r)
                                                    610(g),1186(g)
  1870. BD*(   1) C  26 - H  68          0.00624     0.34505   
  1871. BD*(   1) C  27 - C  51          0.01009     0.47021   
  1872. BD*(   2) C  27 - C  51          0.19359    -0.05644  1931(v),1918(v),1869(r)
                                                    636(g),1262(g)
  1873. BD*(   1) C  27 - C  56          0.01054     0.46519   
  1874. BD*(   1) C  27 - H  69          0.00617     0.33976   
  1875. BD*(   1) N  28 - C  29          0.01363     0.38283   
  1876. BD*(   2) N  28 - C  29          0.31951    -0.10372  1861(v),1880(v),196(v)
                                                    194(v),690(g),662(g),558(v)
                                                    1843(r),1840(r)
  1877. BD*(   1) N  28 - C  32          0.01291     0.39969   
  1878. BD*(   1) C  29 - C  30          0.01646     0.38877   
  1879. BD*(   1) C  30 - C  31          0.00981     0.47604   
  1880. BD*(   2) C  30 - C  31          0.12384    -0.03543  1876(v),196(v),1884(v)
                                                    1888(v),1887(v),1886(v)
  1881. BD*(   1) C  30 - C  34          0.01090     0.30241   
  1882. BD*(   1) C  31 - C  32          0.01684     0.38335   
  1883. BD*(   1) C  31 - C  33          0.00772     0.29986   
  1884. BD*(   1) C  33 - H  70          0.00450     0.30078   
  1885. BD*(   1) C  33 - H  71          0.00251     0.30916   
  1886. BD*(   1) C  33 - H  72          0.00371     0.30732   
  1887. BD*(   1) C  34 - C  35          0.00686     0.26021   
  1888. BD*(   1) C  34 - H  73          0.00775     0.30062   
  1889. BD*(   1) C  34 - H  74          0.00599     0.30615   
  1890. BD*(   1) C  35 - C  36          0.03901     0.25986   
  1891. BD*(   1) C  35 - H  75          0.00532     0.29912   
  1892. BD*(   1) C  35 - H  76          0.00658     0.28478   
  1893. BD*(   1) C  36 - O  37          0.03594     0.41580   
  1894. BD*(   1) C  36 - O  38          0.02055     0.47570   
  1895. BD*(   2) C  36 - O  38          0.08641    -0.07430   
  1896. BD*(   1) O  37 - H 100          0.00669     0.30135   
  1897. BD*(   1) N  39 - C  40          0.01363     0.40380   
  1898. BD*(   1) N  39 - C  43          0.01437     0.39292   
  1899. BD*(   2) N  39 - C  43          0.30328    -0.10092  1869(v),1865(v),1902(v)
                                                    194(v),1054(g),948(g),193(v)
                                                    610(v),1840(r),1841(r)
  1900. BD*(   1) C  40 - C  41          0.01671     0.39034   
  1901. BD*(   1) C  41 - C  42          0.01171     0.47599   
  1902. BD*(   2) C  41 - C  42          0.13333    -0.03582  1865(v),1899(v),201(v)
                                                    1906(v),1908(v),1909(v)
  1903. BD*(   1) C  41 - C  44          0.00767     0.31483   
  1904. BD*(   1) C  42 - C  43          0.01562     0.39819   
  1905. BD*(   1) C  42 - C  45          0.01080     0.30819   
  1906. BD*(   1) C  44 - H  77          0.00407     0.30094   
  1907. BD*(   1) C  44 - H  78          0.00224     0.32038   
  1908. BD*(   1) C  44 - H  79          0.00387     0.30273   
  1909. BD*(   1) C  45 - C  46          0.00170     0.29028   
  1910. BD*(   1) C  45 - H  80          0.00496     0.33528   
  1911. BD*(   1) C  46 - H  81          0.00120     0.30738   
  1912. BD*(   1) C  46 - H  82          0.00368     0.31374   
  1913. BD*(   1) C  46 - H  83          0.00437     0.31760   
  1914. BD*(   1) N  47 - C  48          0.01389     0.42828   
  1915. BD*(   1) N  47 - C  51          0.01477     0.40861   
  1916. BD*(   1) C  48 - C  49          0.01797     0.40162   
  1917. BD*(   1) C  49 - C  50          0.01159     0.48481   
  1918. BD*(   2) C  49 - C  50          0.11369    -0.03052  1869(v),1872(v),203(v)
                                                    1924(v),1922(v),1925(v)
  1919. BD*(   1) C  49 - C  52          0.00790     0.31128   
  1920. BD*(   1) C  50 - C  51          0.01601     0.39365   
  1921. BD*(   1) C  50 - C  53          0.01041     0.32015   
  1922. BD*(   1) C  52 - H  84          0.00342     0.29806   
  1923. BD*(   1) C  52 - H  85          0.00258     0.31756   
  1924. BD*(   1) C  52 - H  86          0.00407     0.29970   
  1925. BD*(   1) C  53 - C  54          0.00220     0.28842   
  1926. BD*(   1) C  53 - H  87          0.00566     0.33399   
  1927. BD*(   1) C  54 - H  88          0.00111     0.30857   
  1928. BD*(   1) C  54 - H  89          0.00387     0.31287   
  1929. BD*(   1) C  54 - H  90          0.00449     0.31204   
  1930. BD*(   1) N  55 - C  56          0.01301     0.41141   
  1931. BD*(   2) N  55 - C  56          0.30322    -0.09288  1872(v),1861(v),1935(v)
                                                    194(r),1392(g),1364(g)
                                                    1393(g),636(v)
  1932. BD*(   1) N  55 - C  59          0.01257     0.40033   
  1933. BD*(   1) C  56 - C  57          0.01731     0.39700   
  1934. BD*(   1) C  57 - C  58          0.01040     0.48703   
  1935. BD*(   2) C  57 - C  58          0.11353    -0.03436  1861(v),1931(v),1941(v)
                                                    1942(v),1943(v)
  1936. BD*(   1) C  57 - C  60          0.00809     0.30102   
  1937. BD*(   1) C  58 - C  59          0.01721     0.38013   
  1938. BD*(   1) C  58 - C  61          0.01136     0.29731   
  1939. BD*(   1) C  60 - H  91          0.00336     0.29838   
  1940. BD*(   1) C  60 - H  92          0.00324     0.30746   
  1941. BD*(   1) C  60 - H  93          0.00512     0.29663   
  1942. BD*(   1) C  61 - C  62          0.00924     0.26111   
  1943. BD*(   1) C  61 - H  94          0.00798     0.29133   
  1944. BD*(   1) C  61 - H  95          0.00782     0.28597   
  1945. BD*(   1) C  62 - C  63          0.03962     0.25470   
  1946. BD*(   1) C  62 - H  96          0.00480     0.29993   
  1947. BD*(   1) C  62 - H  97          0.00515     0.28230   
  1948. BD*(   1) C  63 - O  64          0.03705     0.41279   
  1949. BD*(   1) C  63 - O  65          0.01236     0.48476   
  1950. BD*(   2) C  63 - O  65          0.11673    -0.06309  1947(v),1861(r),1949(g)
                                                    1574(g),1580(g)
  1951. BD*(   1) O  64 - H 101          0.00640     0.29758   
       -------------------------------
              Total Lewis  175.73244  ( 97.5326%)
        Valence non-Lewis    4.12110  (  2.2872%)
        Rydberg non-Lewis    0.32454  (  0.1801%)
       -------------------------------
            Total unit  2  180.17808  (100.0000%)
           Charge unit  2    2.82192
 1\1\GINC-NODE469\SP\UPBE1PBE\def2TZVP\C41H48Fe1N6O4S1(1+,6)\ZHARTOVSKA
 \12-Feb-2023\0\\# PBE1PBE/def2TZVP empiricaldispersion=GD3BJ scf=maxcy
 cle=999 geom=check pop=nbo\\1giw_III_H\\1,6\C,0,5.285,0.862,3.984\C,0,
 4.799,-0.427,3.422\N,0,5.026,-0.844,2.137\C,0,3.769,-1.16,3.94\C,0,4.1
 51,-1.824,1.891\N,0,3.39,-2.086,2.957\H,0,4.65166542,1.15953457,4.7934
 8162\H,0,5.26640282,1.61292395,3.22198467\H,0,5.601,-0.378,1.441\H,0,3
 .257,-0.899,4.862\H,0,3.971,-2.247,0.924\C,0,0.724,-7.635,2.833\C,0,0.
 225,-6.409,3.595\S,0,0.198,-4.923,2.561\C,0,-1.469,-4.256,2.806\H,0,1.
 26915186,-7.3197744,1.96793222\H,0,-0.11135027,-8.23128457,2.53045309\
 H,0,-0.778,-6.628,3.96\H,0,0.847,-6.198,4.461\H,0,-2.22,-5.016,2.575\H
 ,0,-1.569,-3.923,3.84\H,0,-1.62,-3.414,2.132\Fe,0,1.858,-3.275,2.887\C
 ,0,2.674,-4.473,-0.34\C,0,0.073,-0.716,1.547\C,0,1.07,-2.363,6.088\C,0
 ,3.89,-5.832,4.197\N,0,1.404,-2.725,0.936\C,0,1.865,-3.333,-0.213\C,0,
 1.406,-2.533,-1.327\C,0,0.628,-1.512,-0.813\C,0,0.675,-1.609,0.635\C,0
 ,-0.163,-0.519,-1.642\C,0,1.713,-2.768,-2.797\C,0,3.201,-2.881,-3.165\
 C,0,3.513,-2.344,-4.557\O,0,3.415,-3.144,-5.515\O,0,3.826,-1.139,-4.64
 7\N,0,0.762,-1.819,3.679\C,0,0.126,-0.863,2.951\C,0,-0.472,0.047,3.902
 \C,0,-0.266,-0.461,5.172\C,0,0.569,-1.622,5.019\C,0,-1.079,1.375,3.547
 \C,0,-0.868,0.004,6.491\C,0,-2.395,-0.063,6.487\N,0,2.372,-3.978,4.79\
 C,0,1.935,-3.42,5.936\C,0,2.556,-4.102,7.04\C,0,3.459,-4.99,6.504\C,0,
 3.241,-4.986,5.076\C,0,2.331,-3.784,8.496\C,0,4.659,-5.6,7.203\C,0,4.3
 37,-6.8,8.094\N,0,3.058,-4.887,2.071\C,0,3.771,-5.771,2.818\C,0,4.435,
 -6.685,1.923\C,0,4.106,-6.314,0.641\C,0,3.221,-5.166,0.743\C,0,5.364,-
 7.806,2.326\C,0,4.622,-6.977,-0.621\C,0,3.517,-7.523,-1.531\C,0,3.354,
 -9.044,-1.541\O,0,4.353,-9.799,-1.486\O,0,2.179,-9.441,-1.66\H,0,2.913
 ,-4.826,-1.326\H,0,-0.471,0.128,1.159\H,0,0.852,-2.078,7.1\H,0,4.493,-
 6.617,4.614\H,0,-0.97,-1.043,-2.157\H,0,-0.6,0.28,-1.045\H,0,0.488,-0.
 068,-2.388\H,0,1.22,-3.686,-3.104\H,0,1.297,-1.944,-3.374\H,0,3.77,-2.
 302,-2.445\H,0,3.532,-3.919,-3.16\H,0,-1.948,1.251,2.902\H,0,-1.368,1.
 901,4.448\H,0,-0.321,1.959,3.03\H,0,-0.578,-0.645,7.307\H,0,-2.703,-1.
 095,6.318\H,0,-2.781,0.282,7.445\H,0,-2.801,0.55,5.691\H,0,1.267,-3.87
 1,8.716\H,0,2.883,-4.463,9.139\H,0,2.661,-2.765,8.696\H,0,5.351,-5.968
 ,6.456\H,0,3.958,-7.604,7.464\H,0,5.248,-7.136,8.588\H,0,3.593,-6.543,
 8.845\H,0,5.044,-8.257,3.264\H,0,5.373,-8.586,1.575\H,0,6.372,-7.413,2
 .438\H,0,5.216,-6.254,-1.179\H,0,5.304,-7.788,-0.385\H,0,2.564,-7.102,
 -1.212\H,0,3.703,-7.192,-2.552\H,0,1.36378352,-8.21284152,3.46677932\H
 ,0,6.28645359,0.74056542,4.34071327\H,0,4.20625982,-3.49243655,-5.9322
 5277\H,0,5.23768535,-9.42724948,-1.51308116\\Version=ES64L-G16RevA.03\
 State=6-A\HF=-3880.3571113\S2=8.8737\S2-1=0.\S2A=8.753712\RMSD=2.143e-
 09\Dipole=1.5852241,1.1353838,1.316479\Quadrupole=10.6941568,-16.07712
 63,5.3829695,-16.9954875,-21.8597415,4.3973221\PG=C01 [X(C41H48Fe1N6O4
 S1)]\\@


 MY DESCRIPTION OF EXPERIENCE IS NOT WHAT HAPPENS
 TO A MAN.  EXPERIENCE IS WHAT A MAN DOES WITH WHAT
 HAPPENS TO HIM.
                         - CHUCK KNOX, SEATTLE SEAHAWKS, 1985
 Job cpu time:      12 days 16 hours 35 minutes 10.3 seconds.
 Elapsed time:       3 days  4 hours 26 minutes 28.8 seconds.
 File lengths (MBytes):  RWF=   3495 Int=      0 D2E=      0 Chk=    292 Scr=      1
 Normal termination of Gaussian 16 at Sun Feb 12 18:48:41 2023.
