 Entering Gaussian System, Link 0=g16
 Input=/net/homes/chemie/zhartovska/work/BioModel/Konrad/1hrc/1hrc01/1hrc.com
 Output=/net/homes/chemie/zhartovska/work/BioModel/Konrad/1hrc/1hrc01/1hrc.log
 Initial command:
 /afs/math/software/gaussian/g16.A03/g16/l1.exe "/scratch/zhartovska_gaussian.ltyNLPU/Gau-21485.inp" -scrdir="/scratch/zhartovska_gaussian.ltyNLPU/"
 Entering Link 1 = /afs/math/software/gaussian/g16.A03/g16/l1.exe PID=     21486.
  
 Copyright (c) 1988,1990,1992,1993,1995,1998,2003,2009,2016,
            Gaussian, Inc.  All Rights Reserved.
  
 This is part of the Gaussian(R) 16 program.  It is based on
 the Gaussian(R) 09 system (copyright 2009, Gaussian, Inc.),
 the Gaussian(R) 03 system (copyright 2003, Gaussian, Inc.),
 the Gaussian(R) 98 system (copyright 1998, Gaussian, Inc.),
 the Gaussian(R) 94 system (copyright 1995, Gaussian, Inc.),
 the Gaussian 92(TM) system (copyright 1992, Gaussian, Inc.),
 the Gaussian 90(TM) system (copyright 1990, Gaussian, Inc.),
 the Gaussian 88(TM) system (copyright 1988, Gaussian, Inc.),
 the Gaussian 86(TM) system (copyright 1986, Carnegie Mellon
 University), and the Gaussian 82(TM) system (copyright 1983,
 Carnegie Mellon University). Gaussian is a federally registered
 trademark of Gaussian, Inc.
  
 This software contains proprietary and confidential information,
 including trade secrets, belonging to Gaussian, Inc.
  
 This software is provided under written license and may be
 used, copied, transmitted, or stored only in accord with that
 written license.
  
 The following legend is applicable only to US Government
 contracts under FAR:
  
                    RESTRICTED RIGHTS LEGEND
  
 Use, reproduction and disclosure by the US Government is
 subject to restrictions as set forth in subparagraphs (a)
 and (c) of the Commercial Computer Software - Restricted
 Rights clause in FAR 52.227-19.
  
 Gaussian, Inc.
 340 Quinnipiac St., Bldg. 40, Wallingford CT 06492
  
  
 ---------------------------------------------------------------
 Warning -- This program may not be used in any manner that
 competes with the business of Gaussian, Inc. or will provide
 assistance to any competitor of Gaussian, Inc.  The licensee
 of this program is prohibited from giving any competitor of
 Gaussian, Inc. access to this program.  By using this program,
 the user acknowledges that Gaussian, Inc. is engaged in the
 business of creating and licensing software in the field of
 computational chemistry and represents and warrants to the
 licensee that it is not a competitor of Gaussian, Inc. and that
 it will not use this program in any manner prohibited above.
 ---------------------------------------------------------------
  

 Cite this work as:
 Gaussian 16, Revision A.03,
 M. J. Frisch, G. W. Trucks, H. B. Schlegel, G. E. Scuseria, 
 M. A. Robb, J. R. Cheeseman, G. Scalmani, V. Barone, 
 G. A. Petersson, H. Nakatsuji, X. Li, M. Caricato, A. V. Marenich, 
 J. Bloino, B. G. Janesko, R. Gomperts, B. Mennucci, H. P. Hratchian, 
 J. V. Ortiz, A. F. Izmaylov, J. L. Sonnenberg, D. Williams-Young, 
 F. Ding, F. Lipparini, F. Egidi, J. Goings, B. Peng, A. Petrone, 
 T. Henderson, D. Ranasinghe, V. G. Zakrzewski, J. Gao, N. Rega, 
 G. Zheng, W. Liang, M. Hada, M. Ehara, K. Toyota, R. Fukuda, 
 J. Hasegawa, M. Ishida, T. Nakajima, Y. Honda, O. Kitao, H. Nakai, 
 T. Vreven, K. Throssell, J. A. Montgomery, Jr., J. E. Peralta, 
 F. Ogliaro, M. J. Bearpark, J. J. Heyd, E. N. Brothers, K. N. Kudin, 
 V. N. Staroverov, T. A. Keith, R. Kobayashi, J. Normand, 
 K. Raghavachari, A. P. Rendell, J. C. Burant, S. S. Iyengar, 
 J. Tomasi, M. Cossi, J. M. Millam, M. Klene, C. Adamo, R. Cammi, 
 J. W. Ochterski, R. L. Martin, K. Morokuma, O. Farkas, 
 J. B. Foresman, and D. J. Fox, Gaussian, Inc., Wallingford CT, 2016.
 
 ******************************************
 Gaussian 16:  AM64L-G16RevA.03 25-Dec-2016
                 3-Feb-2023 
 ******************************************
 %nprocs=12
 Will use up to   12 processors via shared memory.
 %mem=16GB
 %chk=1hrc_II_S.chk
 ---------------------------------------------------------------------
 # polar def2tzvp empiricaldispersion=gd3bj int=grid=ultrafine pbe1pbe
 ---------------------------------------------------------------------
 1/38=1,172=1/1;
 2/12=2,17=6,18=5,40=1/2;
 3/5=44,7=101,11=2,25=1,30=1,74=-13,75=-5,124=41/1,2,3;
 4//1;
 5/5=2,38=5,98=1/2;
 8/6=4,10=90,11=11/1;
 10/6=1,13=10/2;
 6/7=2,8=2,9=2,10=2,28=1/1;
 99/5=1,9=1/99;
 ---------
 1hrc_II_S
 ---------
 Symbolic Z-matrix:
 Charge =  0 Multiplicity = 1
 C                     50.125    29.428    5.85 
 C                     48.695    29.132    6.213 
 N                     48.338    28.929    7.534 
 C                     47.604    29.002    5.491 
 C                     47.007    28.622    7.538 
 N                     46.546    28.687    6.318 
 C                     40.586    29.054    6.824 
 C                     41.368    28.771    5.499 
 S                     42.461    27.355    5.596 
 C                     42.213    26.568    3.988 
 Fe                    44.63     28.127    5.911 
 C                     43.603    27.259    9.122 
 C                     46.15     25.184    5.602 
 C                     44.907    28.735    2.567 
 C                     43.828    31.352    6.47 
 N                     44.854    26.575    7.169 
 C                     44.331    26.333    8.412 
 C                     44.604    24.936    8.743 
 C                     45.274    24.38     7.785 
 C                     45.455    25.382    6.751 
 C                     45.922    22.989    7.441 
 C                     44.137    24.309    10.098 
 C                     45.39     24.29     11.068 
 C                     45.165    23.63     12.392 
 O                     45.941    24.023    13.329 
 O                     44.26     22.763    12.481 
 N                     45.38     27.146    4.404 
 C                     46.045    25.929    4.454 
 C                     46.548    25.581    3.168 
 C                     46.194    26.543    2.315 
 C                     45.475    27.582    3.075 
 C                     47.35     24.278    2.836 
 C                     46.46     26.659    0.811 
 C                     45.651    25.817   -0.177 
 N                     44.378    29.757    4.719 
 C                     44.545    29.825    3.342 
 C                     44.369    31.176    2.919 
 C                     44.042    31.935    4. 
 C                     44.1      31.041    5.151 
 C                     44.499    31.68     1.456 
 C                     43.861    33.464    4.089 
 C                     43.018    34.168    3.003 
 N                     43.902    29.128    7.459 
 C                     43.634    30.469    7.505 
 C                     43.059    30.773    8.808 
 C                     42.996    29.669    9.505 
 C                     43.497    28.578    8.693 
 C                     42.64     32.208    9.219 
 C                     42.465    29.476    10.959 
 C                     40.94     29.307    10.886 
 C                     40.197    29.179    12.181 
 O                     40.769    29.121    13.27 
 O                     38.963    29.108    11.98 
 H                     50.73589   28.58256   6.08865 
 H                     50.19201   29.63193   4.80175 
 H                     50.46395   30.27999   6.40148 
 H                     48.93798   28.99434   8.33134 
 H                     46.4326   28.36823   8.40435 
 H                     47.54596   29.12168   4.4293 
 H                     41.16437   29.70302   7.44783 
 H                     39.65104   29.52058   6.59364 
 H                     40.40771   28.13197   7.33681 
 H                     40.66021   28.60255   4.71443 
 H                     41.94996   29.63513   5.25508 
 H                     43.02945   25.90694   3.78474 
 H                     41.29867   26.01234   4.00008 
 H                     42.16406   27.3188   3.2272 
 H                     48.28302   24.2903   3.35965 
 H                     46.78238   23.42295   3.13866 
 H                     47.5327   24.23025   1.7828 
 H                     46.84512   24.37063   5.59006 
 H                     46.865    22.90189   7.93906 
 H                     45.27293   22.20297   7.76621 
 H                     46.06897   22.91571   6.38368 
 H                     43.1084   26.95892   10.02212 
 H                     43.38475   32.90399   8.89365 
 H                     41.70247   32.45002   8.76363 
 H                     42.54361   32.26036   10.28336 
 H                     43.7613   32.39232   6.7112 
 H                     45.39945   31.29504   1.02483 
 H                     43.65828   31.34269   0.88652 
 H                     44.52886   32.74956   1.44855 
 H                     46.18999   23.78134   10.57184 
 H                     45.69205   25.30114   11.24482 
 H                     43.78736   23.31085   9.93569 
 H                     43.35604   24.90356   10.52403 
 H                     44.49096   21.83607   12.57615 
 H                     38.63153   28.80792   11.13048 
 H                     40.54233   30.1517   10.36328 
 H                     40.73567   28.43249   10.30429 
 H                     42.90579   28.60273   11.39258 
 H                     42.70631   30.33495   11.54966 
 H                     46.20381   24.93704  -0.4319 
 H                     44.72091   25.53648   0.27148 
 H                     45.46236   26.38846  -1.06173 
 H                     47.21227   27.32952   0.45128 
 H                     43.55539   34.16669   2.07774 
 H                     42.09128   33.64794   2.87796 
 H                     42.82334   35.17707   3.30097 
 H                     44.30852   34.02349   4.88373 
 H                     44.73661   28.78915   1.51204 
 
 Stoichiometry    C41H48FeN6O4S
 Framework group  C1[X(C41H48FeN6O4S)]
 Deg. of freedom   297
 Full point group                 C1      NOp   1
 Largest Abelian subgroup         C1      NOp   1
 Largest concise Abelian subgroup C1      NOp   1
                         Standard orientation:                         
 ---------------------------------------------------------------------
 Center     Atomic      Atomic             Coordinates (Angstroms)
 Number     Number       Type             X           Y           Z
 ---------------------------------------------------------------------
      1          6           0        2.642834   -1.895760    4.972058
      2          6           0        1.853316   -1.355108    3.810748
      3          7           0        0.479928   -1.217990    3.904029
      4          6           0        2.203621   -0.951947    2.609410
      5          6           0        0.046710   -0.771455    2.687987
      6          7           0        1.075740   -0.582515    1.906615
      7          6           0       -0.857788    2.929897   -2.547235
      8          6           0        0.502389    2.157412   -2.526621
      9         16           0        0.324986    0.392981   -2.272802
     10          6           0        1.545230   -0.284456   -3.421113
     11         26           0        0.804155   -0.076535   -0.048002
     12          6           0       -2.674692    0.025225   -0.125072
     13          6           0        0.712643   -3.391592   -0.310979
     14          6           0        4.141500   -0.012262   -0.745658
     15          6           0        0.925975    3.118551    1.016369
     16          7           0       -0.714489   -1.390555   -0.140275
     17          6           0       -2.069221   -1.205432   -0.227295
     18          6           0       -2.673559   -2.498337   -0.541725
     19          6           0       -1.755435   -3.408609   -0.606944
     20          6           0       -0.483787   -2.752762   -0.364662
     21          6           0       -1.633357   -4.956017   -0.859426
     22          6           0       -4.219168   -2.657461   -0.723425
     23          6           0       -4.796593   -3.249718    0.628269
     24          6           0       -6.258763   -3.567668    0.615171
     25          8           0       -6.821763   -3.562758    1.763040
     26          8           0       -6.807076   -3.811403   -0.488724
     27          7           0        2.140777   -1.437147   -0.445604
     28          6           0        1.947435   -2.811263   -0.460850
     29          6           0        3.181204   -3.487251   -0.681681
     30          6           0        4.134179   -2.565393   -0.824466
     31          6           0        3.514456   -1.239692   -0.644053
     32          6           0        3.355679   -5.040939   -0.764406
     33          6           0        5.630678   -2.744187   -1.097873
     34          6           0        6.113936   -3.114881   -2.500953
     35          7           0        2.274771    1.324056    0.081992
     36          6           0        3.614784    1.168685   -0.247959
     37          6           0        4.317795    2.363111    0.090016
     38          6           0        3.428847    3.273978    0.571328
     39          6           0        2.139655    2.593163    0.614604
     40          6           0        5.842977    2.587277   -0.096677
     41          6           0        3.702188    4.667371    1.173216
     42          6           0        4.675366    5.609660    0.431142
     43          7           0       -0.559494    1.292989    0.391492
     44          6           0       -0.318610    2.570039    0.819674
     45          6           0       -1.598622    3.248593    0.967952
     46          6           0       -2.553423    2.413805    0.651602
     47          6           0       -1.956225    1.155040    0.252229
     48          6           0       -1.711328    4.717842    1.449936
     49          6           0       -4.093205    2.663530    0.657149
     50          6           0       -4.469333    3.322268   -0.678557
     51          6           0       -5.899871    3.724771   -0.870937
     52          8           0       -6.776375    3.471110   -0.043974
     53          8           0       -6.055118    4.300452   -1.972156
     54          1           0        2.358214   -2.910834    5.155133
     55          1           0        3.687323   -1.853862    4.743614
     56          1           0        2.444374   -1.307029    5.843213
     57          1           0       -0.085953   -1.408772    4.706140
     58          1           0       -0.974924   -0.603020    2.418184
     59          1           0        3.205633   -0.916071    2.235799
     60          1           0       -1.114263    3.227152   -1.551865
     61          1           0       -0.765664    3.797881   -3.166119
     62          1           0       -1.623777    2.293025   -2.937820
     63          1           0        1.000977    2.319497   -3.459380
     64          1           0        1.109176    2.555880   -1.740534
     65          1           0        1.773324   -1.292803   -3.145232
     66          1           0        1.148013   -0.267625   -4.414509
     67          1           0        2.436769    0.306000   -3.383428
     68          1           0        3.117097   -5.477578    0.182866
     69          1           0        2.700513   -5.434039   -1.513491
     70          1           0        4.368670   -5.273031   -1.019128
     71          1           0        0.691168   -4.446854   -0.135302
     72          1           0       -1.871789   -5.484079    0.040130
     73          1           0       -2.312582   -5.245733   -1.633776
     74          1           0       -0.632638   -5.191087   -1.156418
     75          1           0       -3.718998    0.115388   -0.340005
     76          1           0       -1.030678    4.880919    2.259269
     77          1           0       -1.470229    5.377509    0.642711
     78          1           0       -2.710863    4.909101    1.780467
     79          1           0        0.959037    4.053002    1.536569
     80          1           0        6.377479    1.746717    0.294049
     81          1           0        6.062529    2.696784   -1.138168
     82          1           0        6.139870    3.472795    0.425447
     83          1           0       -4.260689   -4.147251    0.856614
     84          1           0       -4.614912   -2.541032    1.409074
     85          1           0       -4.423353   -3.328673   -1.531313
     86          1           0       -4.662318   -1.703894   -0.921484
     87          1           0       -7.079462   -4.706893   -0.702037
     88          1           0       -5.432422    4.146315   -2.686362
     89          1           0       -3.865355    4.198140   -0.792395
     90          1           0       -4.213496    2.640504   -1.462549
     91          1           0       -4.610678    1.732675    0.760258
     92          1           0       -4.351769    3.313388    1.466921
     93          1           0        6.263186   -4.172837   -2.558857
     94          1           0        5.380045   -2.818283   -3.220907
     95          1           0        7.036637   -2.612839   -2.704611
     96          1           0        6.338494   -2.609674   -0.306796
     97          1           0        5.674705    5.240385    0.530430
     98          1           0        4.411594    5.650706   -0.605024
     99          1           0        4.613972    6.590664    0.853945
    100          1           0        3.229173    4.973860    2.082733
    101          1           0        5.090544    0.028471   -1.238159
 ---------------------------------------------------------------------
 Rotational constants (GHZ):           0.0630138           0.0442226           0.0328073
 Standard basis: def2TZVP (5D, 7F)
 There are  2218 symmetry adapted cartesian basis functions of A   symmetry.
 There are  1951 symmetry adapted basis functions of A   symmetry.
  1951 basis functions,  3156 primitive gaussians,  2218 cartesian basis functions
   205 alpha electrons      205 beta electrons
       nuclear repulsion energy      8922.2388703937 Hartrees.
 NAtoms=  101 NActive=  101 NUniq=  101 SFac= 1.00D+00 NAtFMM=   60 NAOKFM=T Big=T
 Integral buffers will be    131072 words long.
 Raffenetti 2 integral format.
 Two-electron integral symmetry is turned on.
 Nuclear repulsion after empirical dispersion term =     8922.0885404321 Hartrees.
 One-electron integrals computed using PRISM.
   1 Symmetry operations used in ECPInt.
 ECPInt:  NShTT=  305371 NPrTT=  941867 LenC2=  222497 LenP2D=  443967.
 LDataN:  DoStor=T MaxTD1= 6 Len=  172
 NBasis=  1951 RedAO= T EigKep=  3.26D-06  NBF=  1951
 NBsUse=  1951 1.00D-06 EigRej= -1.00D+00 NBFU=  1951
 ExpMin= 4.20D-02 ExpMax= 3.01D+05 ExpMxC= 2.91D+03 IAcc=3 IRadAn=         5 AccDes= 0.00D+00
 Harris functional with IExCor= 1009 and IRadAn=       5 diagonalized for initial guess.
 HarFok:  IExCor= 1009 AccDes= 0.00D+00 IRadAn=         5 IDoV= 1 UseB2=F ITyADJ=14
 ICtDFT=  3500011 ScaDFX=  1.000000  1.000000  1.000000  1.000000
 FoFCou: FMM=F IPFlag=           0 FMFlag=      100000 FMFlg1=        2001
         NFxFlg=           0 DoJE=T BraDBF=F KetDBF=T FulRan=T
         wScrn=  0.000000 ICntrl=       500 IOpCl=  0 I1Cent=   200000004 NGrid=           0
         NMat0=    1 NMatS0=      1 NMatT0=    0 NMatD0=    1 NMtDS0=    0 NMtDT0=    0
 Petite list used in FoFCou.
 Requested convergence on RMS density matrix=1.00D-08 within 128 cycles.
 Requested convergence on MAX density matrix=1.00D-06.
 Requested convergence on             energy=1.00D-06.
 No special actions if energy rises.
 EnCoef did   100 forward-backward iterations
 EnCoef did     6 forward-backward iterations
 EnCoef did     4 forward-backward iterations
 EnCoef did     2 forward-backward iterations
 EnCoef did     2 forward-backward iterations
 EnCoef did   100 forward-backward iterations
 EnCoef did     8 forward-backward iterations
 EnCoef did   100 forward-backward iterations
 EnCoef did     4 forward-backward iterations
 Rare condition: small coef for last iteration:  0.222D-15
 EnCoef did   100 forward-backward iterations
 EnCoef did   100 forward-backward iterations
 Rare condition: small coef for last iteration:  0.132D-14
 EnCoef did   100 forward-backward iterations
 Rare condition: small coef for last iteration:  0.000D+00
 EnCoef did   100 forward-backward iterations
 Rare condition: small coef for last iteration:  0.341D-16
 EnCoef did   100 forward-backward iterations
 EnCoef did   100 forward-backward iterations
 Rare condition: small coef for last iteration:  0.439D-15
 EnCoef did    21 forward-backward iterations
 Rare condition: small coef for last iteration:  0.000D+00
 Restarting incremental Fock formation.
 EnCoef did   100 forward-backward iterations
 EnCoef did   100 forward-backward iterations
 Rare condition: small coef for last iteration: -0.375D-15
 EnCoef did   100 forward-backward iterations
 EnCoef did    39 forward-backward iterations
 EnCoef did     3 forward-backward iterations
 Restarting incremental Fock formation.
 SCF Done:  E(RPBE1PBE) =  -3880.49711914     A.U. after   41 cycles
            NFock= 41  Conv=0.30D-08     -V/T= 2.0032
 DoSCS=F DFT=T ScalE2(SS,OS)=  1.000000  1.000000
 Range of M.O.s used for correlation:     1  1951
 NBasis=  1951 NAE=   205 NBE=   205 NFC=     0 NFV=     0
 NROrb=   1951 NOA=   205 NOB=   205 NVA=  1746 NVB=  1746

 **** Warning!!: The largest alpha MO coefficient is  0.44595876D+02


 **** Warning!!: The smallest alpha delta epsilon is  0.24631439D-01

          Differentiating once with respect to electric field.
                with respect to dipole field.
          Electric field/nuclear overlap derivatives assumed to be zero.
          There are     3 degrees of freedom in the 1st order CPHF.  IDoFFX=0 NUNeed=     3.
      3 vectors produced by pass  0 Test12= 1.19D-11 3.33D-08 XBig12= 1.97D+04 7.48D+01.
 AX will form     3 AO Fock derivatives at one time.
      3 vectors produced by pass  1 Test12= 1.19D-11 3.33D-08 XBig12= 2.22D+04 4.60D+01.
      3 vectors produced by pass  2 Test12= 1.19D-11 3.33D-08 XBig12= 2.59D+04 4.33D+01.
      3 vectors produced by pass  3 Test12= 1.19D-11 3.33D-08 XBig12= 3.09D+04 4.15D+01.
      3 vectors produced by pass  4 Test12= 1.19D-11 3.33D-08 XBig12= 5.11D+04 9.21D+01.
      3 vectors produced by pass  5 Test12= 1.19D-11 3.33D-08 XBig12= 2.20D+04 4.81D+01.
      3 vectors produced by pass  6 Test12= 1.19D-11 3.33D-08 XBig12= 1.37D+04 2.96D+01.
      3 vectors produced by pass  7 Test12= 1.19D-11 3.33D-08 XBig12= 6.83D+03 1.54D+01.
      3 vectors produced by pass  8 Test12= 1.19D-11 3.33D-08 XBig12= 3.67D+03 1.19D+01.
      3 vectors produced by pass  9 Test12= 1.19D-11 3.33D-08 XBig12= 1.68D+03 5.52D+00.
      3 vectors produced by pass 10 Test12= 1.19D-11 3.33D-08 XBig12= 9.31D+02 5.84D+00.
      3 vectors produced by pass 11 Test12= 1.19D-11 3.33D-08 XBig12= 4.70D+02 4.19D+00.
      3 vectors produced by pass 12 Test12= 1.19D-11 3.33D-08 XBig12= 2.33D+02 2.11D+00.
      3 vectors produced by pass 13 Test12= 1.19D-11 3.33D-08 XBig12= 1.49D+02 2.57D+00.
      3 vectors produced by pass 14 Test12= 1.19D-11 3.33D-08 XBig12= 4.00D+01 1.00D+00.
      3 vectors produced by pass 15 Test12= 1.19D-11 3.33D-08 XBig12= 1.44D+01 6.59D-01.
      3 vectors produced by pass 16 Test12= 1.19D-11 3.33D-08 XBig12= 5.27D+00 4.04D-01.
      3 vectors produced by pass 17 Test12= 1.19D-11 3.33D-08 XBig12= 1.56D+00 2.37D-01.
      3 vectors produced by pass 18 Test12= 1.19D-11 3.33D-08 XBig12= 4.87D-01 9.59D-02.
      3 vectors produced by pass 19 Test12= 1.19D-11 3.33D-08 XBig12= 1.66D-01 5.95D-02.
      3 vectors produced by pass 20 Test12= 1.19D-11 3.33D-08 XBig12= 5.04D-02 3.15D-02.
      3 vectors produced by pass 21 Test12= 1.19D-11 3.33D-08 XBig12= 1.38D-02 1.65D-02.
      3 vectors produced by pass 22 Test12= 1.19D-11 3.33D-08 XBig12= 3.31D-03 1.08D-02.
      3 vectors produced by pass 23 Test12= 1.19D-11 3.33D-08 XBig12= 7.90D-04 3.64D-03.
      3 vectors produced by pass 24 Test12= 1.19D-11 3.33D-08 XBig12= 1.36D-04 2.00D-03.
      3 vectors produced by pass 25 Test12= 1.19D-11 3.33D-08 XBig12= 2.74D-05 9.19D-04.
      3 vectors produced by pass 26 Test12= 1.19D-11 3.33D-08 XBig12= 6.32D-06 4.44D-04.
      3 vectors produced by pass 27 Test12= 1.19D-11 3.33D-08 XBig12= 1.38D-06 2.15D-04.
      3 vectors produced by pass 28 Test12= 1.19D-11 3.33D-08 XBig12= 3.62D-07 9.39D-05.
      3 vectors produced by pass 29 Test12= 1.19D-11 3.33D-08 XBig12= 6.15D-08 3.64D-05.
      3 vectors produced by pass 30 Test12= 1.19D-11 3.33D-08 XBig12= 1.00D-08 1.18D-05.
      3 vectors produced by pass 31 Test12= 1.19D-11 3.33D-08 XBig12= 1.75D-09 5.35D-06.
      3 vectors produced by pass 32 Test12= 1.19D-11 3.33D-08 XBig12= 3.21D-10 2.53D-06.
      3 vectors produced by pass 33 Test12= 1.19D-11 3.33D-08 XBig12= 6.31D-11 9.21D-07.
      2 vectors produced by pass 34 Test12= 1.19D-11 3.33D-08 XBig12= 1.25D-11 4.18D-07.
      2 vectors produced by pass 35 Test12= 1.19D-11 3.33D-08 XBig12= 1.92D-12 1.82D-07.
      1 vectors produced by pass 36 Test12= 1.19D-11 3.33D-08 XBig12= 2.36D-13 6.47D-08.
 InvSVY:  IOpt=1 It=  1 EMax= 2.84D-14
 Solved reduced A of dimension   107 with     3 vectors.
 Isotropic polarizability for W=    0.000000      787.28 Bohr**3.
 End of Minotr F.D. properties file   721 does not exist.
 End of Minotr F.D. properties file   722 does not exist.
 End of Minotr F.D. properties file   788 does not exist.
 Hyperfine terms turned off by default for NAtoms > 100.

 **********************************************************************

            Population analysis using the SCF density.

 **********************************************************************

 Orbital symmetries:
       Occupied  (A) (A) (A) (A) (A) (A) (A) (A) (A) (A) (A) (A)
                 (A) (A) (A) (A) (A) (A) (A) (A) (A) (A) (A) (A)
                 (A) (A) (A) (A) (A) (A) (A) (A) (A) (A) (A) (A)
                 (A) (A) (A) (A) (A) (A) (A) (A) (A) (A) (A) (A)
                 (A) (A) (A) (A) (A) (A) (A) (A) (A) (A) (A) (A)
                 (A) (A) (A) (A) (A) (A) (A) (A) (A) (A) (A) (A)
                 (A) (A) (A) (A) (A) (A) (A) (A) (A) (A) (A) (A)
                 (A) (A) (A) (A) (A) (A) (A) (A) (A) (A) (A) (A)
                 (A) (A) (A) (A) (A) (A) (A) (A) (A) (A) (A) (A)
                 (A) (A) (A) (A) (A) (A) (A) (A) (A) (A) (A) (A)
                 (A) (A) (A) (A) (A) (A) (A) (A) (A) (A) (A) (A)
                 (A) (A) (A) (A) (A) (A) (A) (A) (A) (A) (A) (A)
                 (A) (A) (A) (A) (A) (A) (A) (A) (A) (A) (A) (A)
                 (A) (A) (A) (A) (A) (A) (A) (A) (A) (A) (A) (A)
                 (A) (A) (A) (A) (A) (A) (A) (A) (A) (A) (A) (A)
                 (A) (A) (A) (A) (A) (A) (A) (A) (A) (A) (A) (A)
                 (A) (A) (A) (A) (A) (A) (A) (A) (A) (A) (A) (A)
                 (A)
       Virtual   (A) (A) (A) (A) (A) (A) (A) (A) (A) (A) (A) (A)
                 (A) (A) (A) (A) (A) (A) (A) (A) (A) (A) (A) (A)
                 (A) (A) (A) (A) (A) (A) (A) (A) (A) (A) (A) (A)
                 (A) (A) (A) (A) (A) (A) (A) (A) (A) (A) (A) (A)
                 (A) (A) (A) (A) (A) (A) (A) (A) (A) (A) (A) (A)
                 (A) (A) (A) (A) (A) (A) (A) (A) (A) (A) (A) (A)
                 (A) (A) (A) (A) (A) (A) (A) (A) (A) (A) (A) (A)
                 (A) (A) (A) (A) (A) (A) (A) (A) (A) (A) (A) (A)
                 (A) (A) (A) (A) (A) (A) (A) (A) (A) (A) (A) (A)
                 (A) (A) (A) (A) (A) (A) (A) (A) (A) (A) (A) (A)
                 (A) (A) (A) (A) (A) (A) (A) (A) (A) (A) (A) (A)
                 (A) (A) (A) (A) (A) (A) (A) (A) (A) (A) (A) (A)
                 (A) (A) (A) (A) (A) (A) (A) (A) (A) (A) (A) (A)
                 (A) (A) (A) (A) (A) (A) (A) (A) (A) (A) (A) (A)
                 (A) (A) (A) (A) (A) (A) (A) (A) (A) (A) (A) (A)
                 (A) (A) (A) (A) (A) (A) (A) (A) (A) (A) (A) (A)
                 (A) (A) (A) (A) (A) (A) (A) (A) (A) (A) (A) (A)
                 (A) (A) (A) (A) (A) (A) (A) (A) (A) (A) (A) (A)
                 (A) (A) (A) (A) (A) (A) (A) (A) (A) (A) (A) (A)
                 (A) (A) (A) (A) (A) (A) (A) (A) (A) (A) (A) (A)
                 (A) (A) (A) (A) (A) (A) (A) (A) (A) (A) (A) (A)
                 (A) (A) (A) (A) (A) (A) (A) (A) (A) (A) (A) (A)
                 (A) (A) (A) (A) (A) (A) (A) (A) (A) (A) (A) (A)
                 (A) (A) (A) (A) (A) (A) (A) (A) (A) (A) (A) (A)
                 (A) (A) (A) (A) (A) (A) (A) (A) (A) (A) (A) (A)
                 (A) (A) (A) (A) (A) (A) (A) (A) (A) (A) (A) (A)
                 (A) (A) (A) (A) (A) (A) (A) (A) (A) (A) (A) (A)
                 (A) (A) (A) (A) (A) (A) (A) (A) (A) (A) (A) (A)
                 (A) (A) (A) (A) (A) (A) (A) (A) (A) (A) (A) (A)
                 (A) (A) (A) (A) (A) (A) (A) (A) (A) (A) (A) (A)
                 (A) (A) (A) (A) (A) (A) (A) (A) (A) (A) (A) (A)
                 (A) (A) (A) (A) (A) (A) (A) (A) (A) (A) (A) (A)
                 (A) (A) (A) (A) (A) (A) (A) (A) (A) (A) (A) (A)
                 (A) (A) (A) (A) (A) (A) (A) (A) (A) (A) (A) (A)
                 (A) (A) (A) (A) (A) (A) (A) (A) (A) (A) (A) (A)
                 (A) (A) (A) (A) (A) (A) (A) (A) (A) (A) (A) (A)
                 (A) (A) (A) (A) (A) (A) (A) (A) (A) (A) (A) (A)
                 (A) (A) (A) (A) (A) (A) (A) (A) (A) (A) (A) (A)
                 (A) (A) (A) (A) (A) (A) (A) (A) (A) (A) (A) (A)
                 (A) (A) (A) (A) (A) (A) (A) (A) (A) (A) (A) (A)
                 (A) (A) (A) (A) (A) (A) (A) (A) (A) (A) (A) (A)
                 (A) (A) (A) (A) (A) (A) (A) (A) (A) (A) (A) (A)
                 (A) (A) (A) (A) (A) (A) (A) (A) (A) (A) (A) (A)
                 (A) (A) (A) (A) (A) (A) (A) (A) (A) (A) (A) (A)
                 (A) (A) (A) (A) (A) (A) (A) (A) (A) (A) (A) (A)
                 (A) (A) (A) (A) (A) (A) (A) (A) (A) (A) (A) (A)
                 (A) (A) (A) (A) (A) (A) (A) (A) (A) (A) (A) (A)
                 (A) (A) (A) (A) (A) (A) (A) (A) (A) (A) (A) (A)
                 (A) (A) (A) (A) (A) (A) (A) (A) (A) (A) (A) (A)
                 (A) (A) (A) (A) (A) (A) (A) (A) (A) (A) (A) (A)
                 (A) (A) (A) (A) (A) (A) (A) (A) (A) (A) (A) (A)
                 (A) (A) (A) (A) (A) (A) (A) (A) (A) (A) (A) (A)
                 (A) (A) (A) (A) (A) (A) (A) (A) (A) (A) (A) (A)
                 (A) (A) (A) (A) (A) (A) (A) (A) (A) (A) (A) (A)
                 (A) (A) (A) (A) (A) (A) (A) (A) (A) (A) (A) (A)
                 (A) (A) (A) (A) (A) (A) (A) (A) (A) (A) (A) (A)
                 (A) (A) (A) (A) (A) (A) (A) (A) (A) (A) (A) (A)
                 (A) (A) (A) (A) (A) (A) (A) (A) (A) (A) (A) (A)
                 (A) (A) (A) (A) (A) (A) (A) (A) (A) (A) (A) (A)
                 (A) (A) (A) (A) (A) (A) (A) (A) (A) (A) (A) (A)
                 (A) (A) (A) (A) (A) (A) (A) (A) (A) (A) (A) (A)
                 (A) (A) (A) (A) (A) (A) (A) (A) (A) (A) (A) (A)
                 (A) (A) (A) (A) (A) (A) (A) (A) (A) (A) (A) (A)
                 (A) (A) (A) (A) (A) (A) (A) (A) (A) (A) (A) (A)
                 (A) (A) (A) (A) (A) (A) (A) (A) (A) (A) (A) (A)
                 (A) (A) (A) (A) (A) (A) (A) (A) (A) (A) (A) (A)
                 (A) (A) (A) (A) (A) (A) (A) (A) (A) (A) (A) (A)
                 (A) (A) (A) (A) (A) (A) (A) (A) (A) (A) (A) (A)
                 (A) (A) (A) (A) (A) (A) (A) (A) (A) (A) (A) (A)
                 (A) (A) (A) (A) (A) (A) (A) (A) (A) (A) (A) (A)
                 (A) (A) (A) (A) (A) (A) (A) (A) (A) (A) (A) (A)
                 (A) (A) (A) (A) (A) (A) (A) (A) (A) (A) (A) (A)
                 (A) (A) (A) (A) (A) (A) (A) (A) (A) (A) (A) (A)
                 (A) (A) (A) (A) (A) (A) (A) (A) (A) (A) (A) (A)
                 (A) (A) (A) (A) (A) (A) (A) (A) (A) (A) (A) (A)
                 (A) (A) (A) (A) (A) (A) (A) (A) (A) (A) (A) (A)
                 (A) (A) (A) (A) (A) (A) (A) (A) (A) (A) (A) (A)
                 (A) (A) (A) (A) (A) (A) (A) (A) (A) (A) (A) (A)
                 (A) (A) (A) (A) (A) (A) (A) (A) (A) (A) (A) (A)
                 (A) (A) (A) (A) (A) (A) (A) (A) (A) (A) (A) (A)
                 (A) (A) (A) (A) (A) (A) (A) (A) (A) (A) (A) (A)
                 (A) (A) (A) (A) (A) (A) (A) (A) (A) (A) (A) (A)
                 (A) (A) (A) (A) (A) (A) (A) (A) (A) (A) (A) (A)
                 (A) (A) (A) (A) (A) (A) (A) (A) (A) (A) (A) (A)
                 (A) (A) (A) (A) (A) (A) (A) (A) (A) (A) (A) (A)
                 (A) (A) (A) (A) (A) (A) (A) (A) (A) (A) (A) (A)
                 (A) (A) (A) (A) (A) (A) (A) (A) (A) (A) (A) (A)
                 (A) (A) (A) (A) (A) (A) (A) (A) (A) (A) (A) (A)
                 (A) (A) (A) (A) (A) (A) (A) (A) (A) (A) (A) (A)
                 (A) (A) (A) (A) (A) (A) (A) (A) (A) (A) (A) (A)
                 (A) (A) (A) (A) (A) (A) (A) (A) (A) (A) (A) (A)
                 (A) (A) (A) (A) (A) (A) (A) (A) (A) (A) (A) (A)
                 (A) (A) (A) (A) (A) (A) (A) (A) (A) (A) (A) (A)
                 (A) (A) (A) (A) (A) (A) (A) (A) (A) (A) (A) (A)
                 (A) (A) (A) (A) (A) (A) (A) (A) (A) (A) (A) (A)
                 (A) (A) (A) (A) (A) (A) (A) (A) (A) (A) (A) (A)
                 (A) (A) (A) (A) (A) (A) (A) (A) (A) (A) (A) (A)
                 (A) (A) (A) (A) (A) (A) (A) (A) (A) (A) (A) (A)
                 (A) (A) (A) (A) (A) (A) (A) (A) (A) (A) (A) (A)
                 (A) (A) (A) (A) (A) (A) (A) (A) (A) (A) (A) (A)
                 (A) (A) (A) (A) (A) (A) (A) (A) (A) (A) (A) (A)
                 (A) (A) (A) (A) (A) (A) (A) (A) (A) (A) (A) (A)
                 (A) (A) (A) (A) (A) (A) (A) (A) (A) (A) (A) (A)
                 (A) (A) (A) (A) (A) (A) (A) (A) (A) (A) (A) (A)
                 (A) (A) (A) (A) (A) (A) (A) (A) (A) (A) (A) (A)
                 (A) (A) (A) (A) (A) (A) (A) (A) (A) (A) (A) (A)
                 (A) (A) (A) (A) (A) (A) (A) (A) (A) (A) (A) (A)
                 (A) (A) (A) (A) (A) (A) (A) (A) (A) (A) (A) (A)
                 (A) (A) (A) (A) (A) (A) (A) (A) (A) (A) (A) (A)
                 (A) (A) (A) (A) (A) (A) (A) (A) (A) (A) (A) (A)
                 (A) (A) (A) (A) (A) (A) (A) (A) (A) (A) (A) (A)
                 (A) (A) (A) (A) (A) (A) (A) (A) (A) (A) (A) (A)
                 (A) (A) (A) (A) (A) (A) (A) (A) (A) (A) (A) (A)
                 (A) (A) (A) (A) (A) (A) (A) (A) (A) (A) (A) (A)
                 (A) (A) (A) (A) (A) (A) (A) (A) (A) (A) (A) (A)
                 (A) (A) (A) (A) (A) (A) (A) (A) (A) (A) (A) (A)
                 (A) (A) (A) (A) (A) (A) (A) (A) (A) (A) (A) (A)
                 (A) (A) (A) (A) (A) (A) (A) (A) (A) (A) (A) (A)
                 (A) (A) (A) (A) (A) (A) (A) (A) (A) (A) (A) (A)
                 (A) (A) (A) (A) (A) (A) (A) (A) (A) (A) (A) (A)
                 (A) (A) (A) (A) (A) (A) (A) (A) (A) (A) (A) (A)
                 (A) (A) (A) (A) (A) (A) (A) (A) (A) (A) (A) (A)
                 (A) (A) (A) (A) (A) (A) (A) (A) (A) (A) (A) (A)
                 (A) (A) (A) (A) (A) (A) (A) (A) (A) (A) (A) (A)
                 (A) (A) (A) (A) (A) (A) (A) (A) (A) (A) (A) (A)
                 (A) (A) (A) (A) (A) (A) (A) (A) (A) (A) (A) (A)
                 (A) (A) (A) (A) (A) (A) (A) (A) (A) (A) (A) (A)
                 (A) (A) (A) (A) (A) (A) (A) (A) (A) (A) (A) (A)
                 (A) (A) (A) (A) (A) (A) (A) (A) (A) (A) (A) (A)
                 (A) (A) (A) (A) (A) (A) (A) (A) (A) (A) (A) (A)
                 (A) (A) (A) (A) (A) (A) (A) (A) (A) (A) (A) (A)
                 (A) (A) (A) (A) (A) (A) (A) (A) (A) (A) (A) (A)
                 (A) (A) (A) (A) (A) (A) (A) (A) (A) (A) (A) (A)
                 (A) (A) (A) (A) (A) (A) (A) (A) (A) (A) (A) (A)
                 (A) (A) (A) (A) (A) (A) (A) (A) (A) (A) (A) (A)
                 (A) (A) (A) (A) (A) (A) (A) (A) (A) (A) (A) (A)
                 (A) (A) (A) (A) (A) (A) (A) (A) (A) (A) (A) (A)
                 (A) (A) (A) (A) (A) (A) (A) (A) (A) (A) (A) (A)
                 (A) (A) (A) (A) (A) (A) (A) (A) (A) (A) (A) (A)
                 (A) (A) (A) (A) (A) (A) (A) (A) (A) (A) (A) (A)
                 (A) (A) (A) (A) (A) (A) (A) (A) (A) (A) (A) (A)
                 (A) (A) (A) (A) (A) (A) (A) (A) (A) (A) (A) (A)
                 (A) (A) (A) (A) (A) (A) (A) (A) (A) (A) (A) (A)
                 (A) (A) (A) (A) (A) (A) (A) (A) (A) (A) (A) (A)
                 (A) (A) (A) (A) (A) (A) (A) (A) (A) (A) (A) (A)
                 (A) (A) (A) (A) (A) (A)
 The electronic state is 1-A.
 Alpha  occ. eigenvalues -- -256.31078 -89.02188 -30.08063 -25.90896 -25.90545
 Alpha  occ. eigenvalues --  -25.90411 -19.26527 -19.26313 -19.18117 -19.17920
 Alpha  occ. eigenvalues --  -14.44265 -14.39053 -14.37166 -14.37061 -14.36914
 Alpha  occ. eigenvalues --  -14.36508 -10.35583 -10.34759 -10.28088 -10.25755
 Alpha  occ. eigenvalues --  -10.24761 -10.24556 -10.24519 -10.24432 -10.24402
 Alpha  occ. eigenvalues --  -10.24117 -10.24003 -10.23754 -10.23695 -10.23510
 Alpha  occ. eigenvalues --  -10.23510 -10.23061 -10.23044 -10.22995 -10.22965
 Alpha  occ. eigenvalues --  -10.22929 -10.22805 -10.22784 -10.22413 -10.22014
 Alpha  occ. eigenvalues --  -10.21919 -10.21919 -10.21806 -10.21688 -10.21657
 Alpha  occ. eigenvalues --  -10.21442 -10.21428 -10.21423 -10.21343 -10.21250
 Alpha  occ. eigenvalues --  -10.21107 -10.21090 -10.21084 -10.21055 -10.21010
 Alpha  occ. eigenvalues --  -10.20577 -10.20421  -7.99982  -5.93644  -5.93336
 Alpha  occ. eigenvalues --   -5.92815  -3.42496  -2.18516  -2.17837  -2.17649
 Alpha  occ. eigenvalues --   -1.17133  -1.16578  -1.05780  -1.03705  -1.01559
 Alpha  occ. eigenvalues --   -0.97340  -0.96411  -0.96073  -0.95109  -0.90921
 Alpha  occ. eigenvalues --   -0.83673  -0.83424  -0.83050  -0.82762  -0.81310
 Alpha  occ. eigenvalues --   -0.81159  -0.80867  -0.80553  -0.80227  -0.78857
 Alpha  occ. eigenvalues --   -0.78298  -0.76466  -0.76124  -0.75811  -0.75416
 Alpha  occ. eigenvalues --   -0.73791  -0.73013  -0.72638  -0.71560  -0.71000
 Alpha  occ. eigenvalues --   -0.69759  -0.69636  -0.69028  -0.67520  -0.66637
 Alpha  occ. eigenvalues --   -0.66442  -0.65410  -0.64957  -0.64570  -0.62356
 Alpha  occ. eigenvalues --   -0.61961  -0.61669  -0.60296  -0.59066  -0.57479
 Alpha  occ. eigenvalues --   -0.56651  -0.55474  -0.54405  -0.54306  -0.53691
 Alpha  occ. eigenvalues --   -0.53023  -0.52017  -0.51973  -0.51931  -0.51259
 Alpha  occ. eigenvalues --   -0.50889  -0.50370  -0.48784  -0.48631  -0.48418
 Alpha  occ. eigenvalues --   -0.48247  -0.48152  -0.48035  -0.47714  -0.47399
 Alpha  occ. eigenvalues --   -0.46130  -0.45802  -0.45228  -0.45061  -0.44890
 Alpha  occ. eigenvalues --   -0.44709  -0.44581  -0.44335  -0.44305  -0.44049
 Alpha  occ. eigenvalues --   -0.43599  -0.43520  -0.43414  -0.43239  -0.43067
 Alpha  occ. eigenvalues --   -0.43035  -0.42910  -0.42780  -0.42573  -0.42234
 Alpha  occ. eigenvalues --   -0.42123  -0.41579  -0.41245  -0.40951  -0.40816
 Alpha  occ. eigenvalues --   -0.40606  -0.40345  -0.40078  -0.39797  -0.39618
 Alpha  occ. eigenvalues --   -0.39320  -0.39116  -0.38853  -0.38719  -0.38476
 Alpha  occ. eigenvalues --   -0.38120  -0.37764  -0.37706  -0.37473  -0.37337
 Alpha  occ. eigenvalues --   -0.37008  -0.36826  -0.36539  -0.36178  -0.35603
 Alpha  occ. eigenvalues --   -0.35526  -0.35075  -0.34524  -0.34243  -0.33610
 Alpha  occ. eigenvalues --   -0.33530  -0.33056  -0.32806  -0.32778  -0.32036
 Alpha  occ. eigenvalues --   -0.31732  -0.31536  -0.30356  -0.29362  -0.28102
 Alpha  occ. eigenvalues --   -0.27947  -0.27736  -0.27247  -0.26332  -0.25786
 Alpha  occ. eigenvalues --   -0.25148  -0.24669  -0.24321  -0.23640  -0.20109
 Alpha  occ. eigenvalues --   -0.19006  -0.18756  -0.18529  -0.18510  -0.13671
 Alpha virt. eigenvalues --   -0.11208  -0.06564  -0.06175  -0.02053  -0.00518
 Alpha virt. eigenvalues --    0.00428   0.01801   0.02018   0.02348   0.02604
 Alpha virt. eigenvalues --    0.03098   0.03537   0.04160   0.04532   0.04708
 Alpha virt. eigenvalues --    0.05179   0.05435   0.05633   0.06050   0.06148
 Alpha virt. eigenvalues --    0.06278   0.06463   0.07126   0.07182   0.07617
 Alpha virt. eigenvalues --    0.07694   0.07879   0.08056   0.08236   0.08458
 Alpha virt. eigenvalues --    0.08899   0.09196   0.09320   0.09590   0.10081
 Alpha virt. eigenvalues --    0.10376   0.10510   0.10666   0.11182   0.11359
 Alpha virt. eigenvalues --    0.11544   0.11782   0.11870   0.12002   0.12323
 Alpha virt. eigenvalues --    0.12406   0.12502   0.12708   0.12922   0.13102
 Alpha virt. eigenvalues --    0.13173   0.13394   0.13706   0.13875   0.13958
 Alpha virt. eigenvalues --    0.14238   0.14404   0.14723   0.14814   0.14864
 Alpha virt. eigenvalues --    0.14972   0.15226   0.15463   0.15550   0.15863
 Alpha virt. eigenvalues --    0.16012   0.16217   0.16381   0.16739   0.16900
 Alpha virt. eigenvalues --    0.17152   0.17262   0.17691   0.18130   0.18324
 Alpha virt. eigenvalues --    0.18340   0.18774   0.18878   0.19067   0.19116
 Alpha virt. eigenvalues --    0.19301   0.19642   0.19726   0.19934   0.19998
 Alpha virt. eigenvalues --    0.20107   0.20553   0.20658   0.20879   0.21321
 Alpha virt. eigenvalues --    0.21618   0.21710   0.22084   0.22119   0.22252
 Alpha virt. eigenvalues --    0.22335   0.22534   0.23086   0.23204   0.23295
 Alpha virt. eigenvalues --    0.23493   0.23733   0.23827   0.24099   0.24423
 Alpha virt. eigenvalues --    0.24602   0.24704   0.24937   0.25168   0.25315
 Alpha virt. eigenvalues --    0.25581   0.25782   0.26144   0.26530   0.26589
 Alpha virt. eigenvalues --    0.26812   0.27271   0.27314   0.27559   0.27854
 Alpha virt. eigenvalues --    0.28042   0.28094   0.28248   0.28374   0.28689
 Alpha virt. eigenvalues --    0.28760   0.28953   0.29035   0.29271   0.29372
 Alpha virt. eigenvalues --    0.29584   0.29838   0.30033   0.30141   0.30292
 Alpha virt. eigenvalues --    0.30848   0.31037   0.31131   0.31491   0.31603
 Alpha virt. eigenvalues --    0.31791   0.31948   0.32290   0.32418   0.32651
 Alpha virt. eigenvalues --    0.33050   0.33391   0.33792   0.33906   0.34127
 Alpha virt. eigenvalues --    0.34402   0.34716   0.34877   0.34958   0.35132
 Alpha virt. eigenvalues --    0.35423   0.35587   0.35769   0.35896   0.36267
 Alpha virt. eigenvalues --    0.36384   0.36657   0.36862   0.37359   0.37582
 Alpha virt. eigenvalues --    0.37836   0.37969   0.38037   0.38331   0.38605
 Alpha virt. eigenvalues --    0.38839   0.39025   0.39241   0.39360   0.39779
 Alpha virt. eigenvalues --    0.39965   0.40066   0.40224   0.40299   0.40406
 Alpha virt. eigenvalues --    0.40535   0.40832   0.41035   0.41248   0.41495
 Alpha virt. eigenvalues --    0.41564   0.41886   0.41929   0.42182   0.42394
 Alpha virt. eigenvalues --    0.42573   0.42643   0.42784   0.42894   0.43273
 Alpha virt. eigenvalues --    0.43542   0.43777   0.43939   0.44094   0.44171
 Alpha virt. eigenvalues --    0.44187   0.44520   0.44724   0.44752   0.44882
 Alpha virt. eigenvalues --    0.45148   0.45358   0.45494   0.45543   0.45709
 Alpha virt. eigenvalues --    0.45747   0.46008   0.46167   0.46295   0.46375
 Alpha virt. eigenvalues --    0.46520   0.46735   0.46881   0.47154   0.47306
 Alpha virt. eigenvalues --    0.47506   0.47637   0.47801   0.47894   0.48053
 Alpha virt. eigenvalues --    0.48131   0.48318   0.48524   0.48684   0.48782
 Alpha virt. eigenvalues --    0.49008   0.49146   0.49320   0.49473   0.49726
 Alpha virt. eigenvalues --    0.49922   0.50048   0.50192   0.50343   0.50457
 Alpha virt. eigenvalues --    0.50563   0.50842   0.50891   0.51194   0.51530
 Alpha virt. eigenvalues --    0.51603   0.51730   0.51911   0.52293   0.52487
 Alpha virt. eigenvalues --    0.52551   0.52783   0.52996   0.53154   0.53411
 Alpha virt. eigenvalues --    0.53517   0.53618   0.53717   0.53978   0.54346
 Alpha virt. eigenvalues --    0.54446   0.54559   0.54740   0.54997   0.55296
 Alpha virt. eigenvalues --    0.55347   0.55614   0.55692   0.55773   0.56157
 Alpha virt. eigenvalues --    0.56570   0.56645   0.56801   0.57146   0.57277
 Alpha virt. eigenvalues --    0.57386   0.57505   0.57793   0.58084   0.58162
 Alpha virt. eigenvalues --    0.58632   0.58866   0.59004   0.59083   0.59293
 Alpha virt. eigenvalues --    0.59952   0.60062   0.60230   0.60282   0.60414
 Alpha virt. eigenvalues --    0.60916   0.61080   0.61683   0.61743   0.61791
 Alpha virt. eigenvalues --    0.62274   0.62528   0.62694   0.62973   0.63178
 Alpha virt. eigenvalues --    0.63400   0.63789   0.63952   0.64045   0.64191
 Alpha virt. eigenvalues --    0.64568   0.64976   0.65359   0.65656   0.65986
 Alpha virt. eigenvalues --    0.66217   0.66549   0.66752   0.66846   0.67160
 Alpha virt. eigenvalues --    0.67342   0.67788   0.68124   0.68461   0.68702
 Alpha virt. eigenvalues --    0.68900   0.69057   0.69567   0.69713   0.69986
 Alpha virt. eigenvalues --    0.70038   0.70238   0.70832   0.70920   0.71276
 Alpha virt. eigenvalues --    0.71324   0.71985   0.72133   0.72405   0.72663
 Alpha virt. eigenvalues --    0.73272   0.73430   0.73605   0.73644   0.74259
 Alpha virt. eigenvalues --    0.74425   0.74693   0.75063   0.75236   0.75558
 Alpha virt. eigenvalues --    0.75690   0.76239   0.76398   0.76445   0.76725
 Alpha virt. eigenvalues --    0.77360   0.77574   0.77759   0.77805   0.78270
 Alpha virt. eigenvalues --    0.78359   0.78843   0.79238   0.79339   0.79638
 Alpha virt. eigenvalues --    0.80051   0.80243   0.80359   0.80561   0.81049
 Alpha virt. eigenvalues --    0.81230   0.81436   0.82018   0.82247   0.82796
 Alpha virt. eigenvalues --    0.82907   0.83486   0.83606   0.83832   0.84174
 Alpha virt. eigenvalues --    0.84568   0.84646   0.84845   0.85393   0.85620
 Alpha virt. eigenvalues --    0.85860   0.86047   0.86437   0.86547   0.86991
 Alpha virt. eigenvalues --    0.87055   0.87176   0.87448   0.87806   0.88088
 Alpha virt. eigenvalues --    0.88612   0.88764   0.89194   0.89459   0.89569
 Alpha virt. eigenvalues --    0.89825   0.89961   0.90386   0.90591   0.90696
 Alpha virt. eigenvalues --    0.90947   0.91276   0.91745   0.91914   0.92288
 Alpha virt. eigenvalues --    0.92557   0.92766   0.92929   0.93256   0.93819
 Alpha virt. eigenvalues --    0.93974   0.94247   0.94410   0.94610   0.94924
 Alpha virt. eigenvalues --    0.95018   0.95261   0.95743   0.95836   0.96084
 Alpha virt. eigenvalues --    0.96443   0.96604   0.96848   0.97111   0.97227
 Alpha virt. eigenvalues --    0.97893   0.98133   0.98377   0.98448   0.98809
 Alpha virt. eigenvalues --    0.98988   0.99281   1.00044   1.00284   1.00360
 Alpha virt. eigenvalues --    1.00773   1.01215   1.01397   1.01645   1.01825
 Alpha virt. eigenvalues --    1.01952   1.02685   1.02978   1.03176   1.03269
 Alpha virt. eigenvalues --    1.03412   1.03525   1.04017   1.04280   1.04658
 Alpha virt. eigenvalues --    1.04873   1.05067   1.05533   1.05576   1.05703
 Alpha virt. eigenvalues --    1.06116   1.06392   1.06513   1.07034   1.07193
 Alpha virt. eigenvalues --    1.07388   1.07708   1.08198   1.08317   1.08487
 Alpha virt. eigenvalues --    1.08895   1.09335   1.09468   1.10073   1.10182
 Alpha virt. eigenvalues --    1.10388   1.10622   1.10841   1.11022   1.11416
 Alpha virt. eigenvalues --    1.11638   1.11997   1.12134   1.12905   1.13134
 Alpha virt. eigenvalues --    1.13386   1.13492   1.13768   1.14147   1.14775
 Alpha virt. eigenvalues --    1.15059   1.15234   1.15511   1.16060   1.16250
 Alpha virt. eigenvalues --    1.16564   1.16771   1.17030   1.17506   1.17922
 Alpha virt. eigenvalues --    1.18281   1.18591   1.19226   1.19387   1.19628
 Alpha virt. eigenvalues --    1.20422   1.20521   1.20865   1.20945   1.21438
 Alpha virt. eigenvalues --    1.21647   1.22233   1.22544   1.22817   1.23148
 Alpha virt. eigenvalues --    1.23437   1.24002   1.24099   1.24496   1.24700
 Alpha virt. eigenvalues --    1.24996   1.25333   1.25605   1.25951   1.26284
 Alpha virt. eigenvalues --    1.26510   1.27049   1.27325   1.27699   1.28261
 Alpha virt. eigenvalues --    1.28536   1.28874   1.29061   1.29436   1.29826
 Alpha virt. eigenvalues --    1.30598   1.30831   1.31220   1.31375   1.31524
 Alpha virt. eigenvalues --    1.31834   1.32093   1.32468   1.33000   1.33657
 Alpha virt. eigenvalues --    1.33719   1.34041   1.34787   1.35079   1.35360
 Alpha virt. eigenvalues --    1.35750   1.36269   1.36912   1.37171   1.37385
 Alpha virt. eigenvalues --    1.37979   1.38140   1.38822   1.39225   1.39394
 Alpha virt. eigenvalues --    1.39791   1.40066   1.40754   1.41183   1.41614
 Alpha virt. eigenvalues --    1.42003   1.42150   1.42776   1.43227   1.43509
 Alpha virt. eigenvalues --    1.43962   1.44635   1.44799   1.44939   1.45463
 Alpha virt. eigenvalues --    1.45629   1.46074   1.46315   1.46774   1.46920
 Alpha virt. eigenvalues --    1.47326   1.47384   1.47576   1.48525   1.48606
 Alpha virt. eigenvalues --    1.48977   1.49352   1.49623   1.49963   1.50300
 Alpha virt. eigenvalues --    1.50579   1.51084   1.51349   1.51687   1.51848
 Alpha virt. eigenvalues --    1.52120   1.52227   1.52378   1.52674   1.53018
 Alpha virt. eigenvalues --    1.53111   1.53423   1.53674   1.53810   1.54040
 Alpha virt. eigenvalues --    1.54461   1.54638   1.54884   1.55196   1.55271
 Alpha virt. eigenvalues --    1.55749   1.55863   1.56116   1.56404   1.56697
 Alpha virt. eigenvalues --    1.56931   1.57100   1.57345   1.57884   1.57926
 Alpha virt. eigenvalues --    1.58043   1.58382   1.58424   1.58805   1.59250
 Alpha virt. eigenvalues --    1.59293   1.59564   1.59948   1.59977   1.60381
 Alpha virt. eigenvalues --    1.60675   1.60817   1.61206   1.61455   1.61715
 Alpha virt. eigenvalues --    1.61755   1.62214   1.62547   1.62734   1.62967
 Alpha virt. eigenvalues --    1.63210   1.63414   1.63671   1.63824   1.64079
 Alpha virt. eigenvalues --    1.64390   1.64882   1.64888   1.65177   1.65367
 Alpha virt. eigenvalues --    1.65745   1.66179   1.66360   1.66389   1.66528
 Alpha virt. eigenvalues --    1.66889   1.67184   1.67388   1.67744   1.67943
 Alpha virt. eigenvalues --    1.67961   1.68388   1.68884   1.68941   1.69168
 Alpha virt. eigenvalues --    1.69959   1.70386   1.70541   1.70748   1.71084
 Alpha virt. eigenvalues --    1.71288   1.71717   1.71941   1.72456   1.72810
 Alpha virt. eigenvalues --    1.73044   1.73249   1.73611   1.73931   1.74300
 Alpha virt. eigenvalues --    1.74417   1.74802   1.75126   1.75356   1.75628
 Alpha virt. eigenvalues --    1.75767   1.75913   1.76208   1.76720   1.76807
 Alpha virt. eigenvalues --    1.77356   1.77395   1.77804   1.78066   1.78859
 Alpha virt. eigenvalues --    1.79025   1.79103   1.80087   1.80332   1.80460
 Alpha virt. eigenvalues --    1.81101   1.81254   1.81713   1.81929   1.82050
 Alpha virt. eigenvalues --    1.82209   1.82439   1.83284   1.83808   1.83949
 Alpha virt. eigenvalues --    1.84272   1.84920   1.85163   1.85595   1.85813
 Alpha virt. eigenvalues --    1.86196   1.86484   1.86753   1.87012   1.87415
 Alpha virt. eigenvalues --    1.87850   1.88132   1.88611   1.88763   1.88867
 Alpha virt. eigenvalues --    1.89412   1.89919   1.90309   1.90699   1.90889
 Alpha virt. eigenvalues --    1.91365   1.91801   1.92163   1.92667   1.93023
 Alpha virt. eigenvalues --    1.93374   1.93668   1.94004   1.94266   1.94937
 Alpha virt. eigenvalues --    1.95257   1.95345   1.95572   1.95951   1.96321
 Alpha virt. eigenvalues --    1.96708   1.96824   1.96865   1.97133   1.97247
 Alpha virt. eigenvalues --    1.97853   1.98003   1.98216   1.98640   1.99025
 Alpha virt. eigenvalues --    1.99508   1.99652   2.00049   2.00420   2.00636
 Alpha virt. eigenvalues --    2.00824   2.01443   2.01892   2.02217   2.02274
 Alpha virt. eigenvalues --    2.02624   2.03122   2.03649   2.03874   2.04418
 Alpha virt. eigenvalues --    2.04814   2.05085   2.05735   2.05975   2.06322
 Alpha virt. eigenvalues --    2.06481   2.06608   2.07106   2.07298   2.07466
 Alpha virt. eigenvalues --    2.07856   2.08444   2.08790   2.09052   2.09427
 Alpha virt. eigenvalues --    2.09541   2.09987   2.10560   2.10767   2.11022
 Alpha virt. eigenvalues --    2.11460   2.11913   2.12101   2.12220   2.12779
 Alpha virt. eigenvalues --    2.12923   2.13478   2.13982   2.14207   2.14367
 Alpha virt. eigenvalues --    2.14812   2.15030   2.15256   2.15505   2.15945
 Alpha virt. eigenvalues --    2.16209   2.16526   2.16909   2.17060   2.17576
 Alpha virt. eigenvalues --    2.18012   2.18199   2.18638   2.18949   2.19250
 Alpha virt. eigenvalues --    2.19798   2.20014   2.20098   2.20200   2.20523
 Alpha virt. eigenvalues --    2.21040   2.21430   2.21691   2.22142   2.22494
 Alpha virt. eigenvalues --    2.22858   2.23206   2.23766   2.23937   2.24317
 Alpha virt. eigenvalues --    2.24762   2.24918   2.25167   2.25531   2.25772
 Alpha virt. eigenvalues --    2.26086   2.26400   2.26616   2.27170   2.27530
 Alpha virt. eigenvalues --    2.27797   2.28013   2.28506   2.28793   2.29157
 Alpha virt. eigenvalues --    2.29466   2.29803   2.30066   2.30965   2.31158
 Alpha virt. eigenvalues --    2.31620   2.31759   2.32070   2.32145   2.32616
 Alpha virt. eigenvalues --    2.33318   2.33571   2.33905   2.34081   2.34526
 Alpha virt. eigenvalues --    2.35085   2.35467   2.35805   2.36115   2.36210
 Alpha virt. eigenvalues --    2.36483   2.36917   2.37237   2.37634   2.37800
 Alpha virt. eigenvalues --    2.37957   2.38611   2.38801   2.38922   2.39117
 Alpha virt. eigenvalues --    2.39621   2.39783   2.40152   2.40224   2.40545
 Alpha virt. eigenvalues --    2.40890   2.41078   2.41657   2.42264   2.42888
 Alpha virt. eigenvalues --    2.43086   2.43358   2.43617   2.44026   2.44313
 Alpha virt. eigenvalues --    2.44489   2.44769   2.45607   2.46064   2.46335
 Alpha virt. eigenvalues --    2.46833   2.47263   2.47417   2.48174   2.48416
 Alpha virt. eigenvalues --    2.48650   2.48824   2.49247   2.49582   2.49983
 Alpha virt. eigenvalues --    2.50492   2.50718   2.51104   2.51575   2.51827
 Alpha virt. eigenvalues --    2.52072   2.52755   2.53071   2.53497   2.53770
 Alpha virt. eigenvalues --    2.53935   2.54175   2.54361   2.55040   2.55192
 Alpha virt. eigenvalues --    2.55520   2.55834   2.56097   2.56395   2.56799
 Alpha virt. eigenvalues --    2.57225   2.57556   2.57776   2.58120   2.58233
 Alpha virt. eigenvalues --    2.58599   2.58761   2.59406   2.59710   2.59906
 Alpha virt. eigenvalues --    2.60109   2.60326   2.60824   2.61042   2.61495
 Alpha virt. eigenvalues --    2.61699   2.62199   2.62366   2.62412   2.62854
 Alpha virt. eigenvalues --    2.63008   2.63402   2.63481   2.63744   2.64183
 Alpha virt. eigenvalues --    2.64537   2.64734   2.65073   2.65281   2.65535
 Alpha virt. eigenvalues --    2.65731   2.65823   2.66319   2.66582   2.67198
 Alpha virt. eigenvalues --    2.67491   2.67680   2.67855   2.68398   2.68562
 Alpha virt. eigenvalues --    2.69243   2.69455   2.69566   2.69982   2.70084
 Alpha virt. eigenvalues --    2.70371   2.70637   2.71180   2.71297   2.71544
 Alpha virt. eigenvalues --    2.71630   2.72202   2.72472   2.72789   2.73005
 Alpha virt. eigenvalues --    2.73280   2.73418   2.73902   2.74047   2.74353
 Alpha virt. eigenvalues --    2.74503   2.74892   2.74954   2.75508   2.75878
 Alpha virt. eigenvalues --    2.76071   2.76322   2.76583   2.77440   2.77644
 Alpha virt. eigenvalues --    2.77832   2.78187   2.78318   2.78508   2.78998
 Alpha virt. eigenvalues --    2.79405   2.80147   2.80259   2.80431   2.80947
 Alpha virt. eigenvalues --    2.81244   2.81709   2.81785   2.82467   2.82894
 Alpha virt. eigenvalues --    2.83457   2.83614   2.84040   2.84254   2.84433
 Alpha virt. eigenvalues --    2.84819   2.85073   2.85384   2.85982   2.86528
 Alpha virt. eigenvalues --    2.86695   2.86890   2.87122   2.87733   2.87891
 Alpha virt. eigenvalues --    2.88320   2.88494   2.88765   2.88989   2.89324
 Alpha virt. eigenvalues --    2.89676   2.90062   2.90634   2.90854   2.91165
 Alpha virt. eigenvalues --    2.91511   2.91656   2.91940   2.92321   2.92699
 Alpha virt. eigenvalues --    2.93136   2.93278   2.93340   2.93988   2.94382
 Alpha virt. eigenvalues --    2.94499   2.94823   2.95023   2.95809   2.96168
 Alpha virt. eigenvalues --    2.96273   2.96719   2.96966   2.97454   2.97785
 Alpha virt. eigenvalues --    2.98114   2.98336   2.98443   2.98820   2.99088
 Alpha virt. eigenvalues --    2.99471   2.99755   3.00068   3.00785   3.01135
 Alpha virt. eigenvalues --    3.01393   3.01893   3.02171   3.02630   3.02753
 Alpha virt. eigenvalues --    3.03136   3.03283   3.03674   3.04323   3.04618
 Alpha virt. eigenvalues --    3.05070   3.05081   3.05219   3.05629   3.05862
 Alpha virt. eigenvalues --    3.05989   3.06554   3.06938   3.07033   3.07428
 Alpha virt. eigenvalues --    3.07490   3.07829   3.08198   3.08433   3.08799
 Alpha virt. eigenvalues --    3.08870   3.09119   3.09798   3.09847   3.10332
 Alpha virt. eigenvalues --    3.10362   3.10695   3.11076   3.11223   3.11400
 Alpha virt. eigenvalues --    3.11934   3.12036   3.12506   3.12585   3.12975
 Alpha virt. eigenvalues --    3.13135   3.13283   3.13651   3.13829   3.13972
 Alpha virt. eigenvalues --    3.14366   3.14588   3.14860   3.15004   3.15199
 Alpha virt. eigenvalues --    3.15309   3.15839   3.16020   3.16491   3.16616
 Alpha virt. eigenvalues --    3.17010   3.17256   3.17497   3.17704   3.18009
 Alpha virt. eigenvalues --    3.18182   3.18307   3.18763   3.18911   3.19193
 Alpha virt. eigenvalues --    3.19725   3.19951   3.20370   3.20599   3.20969
 Alpha virt. eigenvalues --    3.21134   3.21478   3.21682   3.22119   3.22211
 Alpha virt. eigenvalues --    3.22289   3.22829   3.22943   3.23183   3.23291
 Alpha virt. eigenvalues --    3.23665   3.23726   3.24142   3.24406   3.24463
 Alpha virt. eigenvalues --    3.24918   3.25181   3.25263   3.25756   3.25954
 Alpha virt. eigenvalues --    3.26111   3.26539   3.26719   3.26877   3.27144
 Alpha virt. eigenvalues --    3.27403   3.27484   3.27755   3.27809   3.28211
 Alpha virt. eigenvalues --    3.28567   3.28679   3.28983   3.29238   3.29571
 Alpha virt. eigenvalues --    3.30072   3.30215   3.30340   3.30512   3.30708
 Alpha virt. eigenvalues --    3.31024   3.31397   3.31604   3.31702   3.31913
 Alpha virt. eigenvalues --    3.32136   3.32616   3.32891   3.33027   3.33301
 Alpha virt. eigenvalues --    3.33617   3.33724   3.34237   3.34579   3.34681
 Alpha virt. eigenvalues --    3.35011   3.35289   3.35604   3.35969   3.36127
 Alpha virt. eigenvalues --    3.36400   3.36741   3.36967   3.37242   3.37505
 Alpha virt. eigenvalues --    3.38019   3.38134   3.38200   3.38400   3.38696
 Alpha virt. eigenvalues --    3.39184   3.39360   3.39517   3.39854   3.40035
 Alpha virt. eigenvalues --    3.40253   3.40324   3.40589   3.40840   3.41128
 Alpha virt. eigenvalues --    3.41413   3.41476   3.41820   3.42081   3.42486
 Alpha virt. eigenvalues --    3.42596   3.42767   3.43266   3.43786   3.44053
 Alpha virt. eigenvalues --    3.44337   3.44450   3.44732   3.44978   3.45243
 Alpha virt. eigenvalues --    3.45450   3.45598   3.45654   3.46268   3.46456
 Alpha virt. eigenvalues --    3.46743   3.47126   3.47383   3.47535   3.47715
 Alpha virt. eigenvalues --    3.47814   3.48268   3.48505   3.48852   3.49262
 Alpha virt. eigenvalues --    3.49482   3.49687   3.50040   3.50166   3.50349
 Alpha virt. eigenvalues --    3.50600   3.50884   3.51692   3.51816   3.52085
 Alpha virt. eigenvalues --    3.52189   3.52676   3.52982   3.53300   3.53816
 Alpha virt. eigenvalues --    3.53923   3.54336   3.54624   3.55004   3.55135
 Alpha virt. eigenvalues --    3.55353   3.55686   3.56373   3.56657   3.56769
 Alpha virt. eigenvalues --    3.57151   3.57351   3.58167   3.58401   3.58872
 Alpha virt. eigenvalues --    3.58960   3.59162   3.59525   3.59938   3.60402
 Alpha virt. eigenvalues --    3.60745   3.60969   3.61763   3.61957   3.62266
 Alpha virt. eigenvalues --    3.62626   3.62855   3.63196   3.63410   3.64004
 Alpha virt. eigenvalues --    3.64424   3.64733   3.65264   3.65355   3.65902
 Alpha virt. eigenvalues --    3.66011   3.66104   3.66575   3.67256   3.67733
 Alpha virt. eigenvalues --    3.68225   3.68486   3.68817   3.68943   3.69235
 Alpha virt. eigenvalues --    3.70184   3.70220   3.70619   3.71068   3.71145
 Alpha virt. eigenvalues --    3.71356   3.71711   3.71957   3.72084   3.72321
 Alpha virt. eigenvalues --    3.73156   3.73475   3.73750   3.73814   3.74390
 Alpha virt. eigenvalues --    3.74597   3.74805   3.74962   3.75390   3.75814
 Alpha virt. eigenvalues --    3.75846   3.76585   3.77298   3.77519   3.77671
 Alpha virt. eigenvalues --    3.78128   3.79010   3.79271   3.79706   3.80096
 Alpha virt. eigenvalues --    3.80569   3.80915   3.81193   3.81580   3.82159
 Alpha virt. eigenvalues --    3.82670   3.82863   3.83411   3.83557   3.84330
 Alpha virt. eigenvalues --    3.84406   3.84946   3.85327   3.85473   3.86101
 Alpha virt. eigenvalues --    3.86392   3.87075   3.87417   3.87849   3.88356
 Alpha virt. eigenvalues --    3.89156   3.89902   3.89959   3.90361   3.90479
 Alpha virt. eigenvalues --    3.90750   3.91487   3.91785   3.92181   3.92500
 Alpha virt. eigenvalues --    3.93210   3.93405   3.94514   3.94728   3.95179
 Alpha virt. eigenvalues --    3.95422   3.95600   3.96051   3.96684   3.96885
 Alpha virt. eigenvalues --    3.97129   3.97738   3.98178   3.98732   3.99063
 Alpha virt. eigenvalues --    3.99743   4.00473   4.00964   4.01386   4.01631
 Alpha virt. eigenvalues --    4.01984   4.02554   4.03194   4.03610   4.03990
 Alpha virt. eigenvalues --    4.04052   4.04877   4.05344   4.06023   4.06817
 Alpha virt. eigenvalues --    4.06951   4.08222   4.08452   4.08871   4.09175
 Alpha virt. eigenvalues --    4.09800   4.10249   4.10920   4.11765   4.12388
 Alpha virt. eigenvalues --    4.12879   4.13840   4.14680   4.15422   4.16172
 Alpha virt. eigenvalues --    4.16217   4.16532   4.17192   4.17644   4.18301
 Alpha virt. eigenvalues --    4.18900   4.19064   4.19936   4.20973   4.21497
 Alpha virt. eigenvalues --    4.21859   4.22424   4.22566   4.23012   4.23538
 Alpha virt. eigenvalues --    4.23806   4.24279   4.25112   4.25272   4.26360
 Alpha virt. eigenvalues --    4.27021   4.27504   4.27596   4.28128   4.29126
 Alpha virt. eigenvalues --    4.30273   4.30726   4.31297   4.31861   4.32403
 Alpha virt. eigenvalues --    4.32807   4.33211   4.33939   4.34438   4.34686
 Alpha virt. eigenvalues --    4.35177   4.35553   4.36032   4.36181   4.36653
 Alpha virt. eigenvalues --    4.36829   4.37583   4.38093   4.38653   4.38902
 Alpha virt. eigenvalues --    4.39197   4.39368   4.39547   4.39820   4.40189
 Alpha virt. eigenvalues --    4.40563   4.40814   4.41555   4.41690   4.42441
 Alpha virt. eigenvalues --    4.42691   4.42868   4.43200   4.43793   4.44279
 Alpha virt. eigenvalues --    4.44850   4.45826   4.45950   4.46548   4.47178
 Alpha virt. eigenvalues --    4.47385   4.47927   4.48319   4.48910   4.49094
 Alpha virt. eigenvalues --    4.49808   4.50024   4.50933   4.51544   4.52006
 Alpha virt. eigenvalues --    4.52258   4.52777   4.53323   4.54379   4.54954
 Alpha virt. eigenvalues --    4.55164   4.56114   4.57022   4.57255   4.57804
 Alpha virt. eigenvalues --    4.58410   4.59189   4.59722   4.60008   4.60487
 Alpha virt. eigenvalues --    4.61404   4.62402   4.62890   4.63313   4.64328
 Alpha virt. eigenvalues --    4.64543   4.64952   4.65152   4.66143   4.66939
 Alpha virt. eigenvalues --    4.67187   4.68183   4.68713   4.69034   4.70295
 Alpha virt. eigenvalues --    4.70625   4.71756   4.71843   4.72093   4.72817
 Alpha virt. eigenvalues --    4.73788   4.74117   4.74719   4.75677   4.75884
 Alpha virt. eigenvalues --    4.76372   4.76916   4.77232   4.77962   4.79085
 Alpha virt. eigenvalues --    4.80062   4.81383   4.81873   4.82407   4.82839
 Alpha virt. eigenvalues --    4.83419   4.84133   4.84942   4.85819   4.86636
 Alpha virt. eigenvalues --    4.87024   4.87975   4.88074   4.89113   4.89817
 Alpha virt. eigenvalues --    4.90782   4.91590   4.91912   4.92412   4.92684
 Alpha virt. eigenvalues --    4.93992   4.94447   4.95054   4.95527   4.96452
 Alpha virt. eigenvalues --    4.96757   4.97317   4.98198   4.99131   4.99324
 Alpha virt. eigenvalues --    5.00117   5.01475   5.01746   5.02606   5.02654
 Alpha virt. eigenvalues --    5.03906   5.05034   5.06481   5.06853   5.06951
 Alpha virt. eigenvalues --    5.07486   5.09682   5.10115   5.10552   5.11594
 Alpha virt. eigenvalues --    5.13069   5.13925   5.14564   5.16292   5.17017
 Alpha virt. eigenvalues --    5.17793   5.18857   5.19983   5.20567   5.21138
 Alpha virt. eigenvalues --    5.22268   5.22929   5.23297   5.23801   5.23868
 Alpha virt. eigenvalues --    5.24503   5.25625   5.26406   5.27520   5.28334
 Alpha virt. eigenvalues --    5.30128   5.30687   5.31058   5.31433   5.33122
 Alpha virt. eigenvalues --    5.34897   5.35538   5.36587   5.37391   5.37889
 Alpha virt. eigenvalues --    5.38928   5.39260   5.41125   5.42815   5.44604
 Alpha virt. eigenvalues --    5.44916   5.45060   5.46016   5.46764   5.48058
 Alpha virt. eigenvalues --    5.49279   5.49538   5.51469   5.52348   5.54724
 Alpha virt. eigenvalues --    5.55606   5.56565   5.57032   5.57559   5.57729
 Alpha virt. eigenvalues --    5.59237   5.59973   5.60559   5.61095   5.61703
 Alpha virt. eigenvalues --    5.63099   5.64053   5.65096   5.66630   5.66956
 Alpha virt. eigenvalues --    5.68152   5.70178   5.73801   5.75891   5.77142
 Alpha virt. eigenvalues --    5.78109   5.80385   5.81797   5.87367   5.87919
 Alpha virt. eigenvalues --    5.89386   5.94042   5.94617   5.95155   5.97188
 Alpha virt. eigenvalues --    5.99413   6.00702   6.01909   6.04225   6.06077
 Alpha virt. eigenvalues --    6.06328   6.06685   6.09422   6.09845   6.12303
 Alpha virt. eigenvalues --    6.13014   6.14318   6.16211   6.17763   6.19266
 Alpha virt. eigenvalues --    6.20892   6.25850   6.27277   6.28926   6.29232
 Alpha virt. eigenvalues --    6.29538   6.33149   6.34214   6.38547   6.39111
 Alpha virt. eigenvalues --    6.44950   6.45637   6.48491   6.49470   6.53980
 Alpha virt. eigenvalues --    6.64760   6.71419   6.72094   6.76925   6.83064
 Alpha virt. eigenvalues --    6.86802   6.92574   6.94696   6.98665   7.03816
 Alpha virt. eigenvalues --    7.10949   7.15427   7.17814   7.22258   7.23651
 Alpha virt. eigenvalues --    7.32097   9.31729   9.53241   9.65074  20.21683
 Alpha virt. eigenvalues --   22.37583  22.45571  22.47408  22.48870  22.49202
 Alpha virt. eigenvalues --   22.49383  22.52840  22.54856  22.57085  22.59184
 Alpha virt. eigenvalues --   22.59667  22.60762  22.62421  22.67221  22.71535
 Alpha virt. eigenvalues --   22.73532  22.79559  22.89019  22.90324  22.92996
 Alpha virt. eigenvalues --   22.95950  22.98302  23.04047  23.08794  23.13459
 Alpha virt. eigenvalues --   23.17242  23.22823  23.29224  23.31568  23.39477
 Alpha virt. eigenvalues --   23.41445  23.42362  23.45289  23.48799  23.55942
 Alpha virt. eigenvalues --   23.61013  23.67590  23.69589  23.75960  23.80464
 Alpha virt. eigenvalues --   23.86932  32.45955  32.86559  32.95646  33.03442
 Alpha virt. eigenvalues --   33.09968  33.17372  43.91104  43.95148  43.97009
 Alpha virt. eigenvalues --   43.99387
          Condensed to atoms (all electrons):
 Mulliken charges:
               1
     1  C   -0.386545
     2  C    0.198372
     3  N   -0.235958
     4  C   -0.228954
     5  C    0.013139
     6  N    0.052890
     7  C   -0.349919
     8  C   -0.154910
     9  S    0.047908
    10  C   -0.398981
    11  Fe  -0.462795
    12  C   -0.460196
    13  C   -0.495305
    14  C   -0.541670
    15  C   -0.443062
    16  N   -0.002771
    17  C    0.210401
    18  C    0.036193
    19  C   -0.082061
    20  C    0.235947
    21  C   -0.397088
    22  C   -0.313920
    23  C   -0.199692
    24  C    0.286503
    25  O   -0.359488
    26  O   -0.351676
    27  N    0.044301
    28  C    0.243039
    29  C   -0.054688
    30  C    0.112514
    31  C    0.139589
    32  C   -0.417782
    33  C   -0.376360
    34  C   -0.325879
    35  N   -0.003006
    36  C    0.248298
    37  C   -0.082712
    38  C    0.052216
    39  C    0.156676
    40  C   -0.368750
    41  C   -0.295783
    42  C   -0.307607
    43  N    0.084659
    44  C    0.218172
    45  C   -0.105631
    46  C    0.120739
    47  C    0.139996
    48  C   -0.418352
    49  C   -0.303603
    50  C   -0.334753
    51  C    0.329328
    52  O   -0.343337
    53  O   -0.299382
    54  H    0.139156
    55  H    0.143078
    56  H    0.134746
    57  H    0.234202
    58  H    0.175158
    59  H    0.141828
    60  H    0.132085
    61  H    0.119082
    62  H    0.106169
    63  H    0.128351
    64  H    0.136214
    65  H    0.161531
    66  H    0.151639
    67  H    0.144210
    68  H    0.131351
    69  H    0.136797
    70  H    0.137629
    71  H    0.143346
    72  H    0.135487
    73  H    0.130594
    74  H    0.135256
    75  H    0.113566
    76  H    0.137063
    77  H    0.141324
    78  H    0.133453
    79  H    0.089736
    80  H    0.136236
    81  H    0.129648
    82  H    0.112003
    83  H    0.128151
    84  H    0.138028
    85  H    0.107876
    86  H    0.121964
    87  H    0.356048
    88  H    0.347737
    89  H    0.149995
    90  H    0.138061
    91  H    0.127280
    92  H    0.132124
    93  H    0.127846
    94  H    0.132266
    95  H    0.130060
    96  H    0.142951
    97  H    0.116583
    98  H    0.136124
    99  H    0.126349
   100  H    0.143798
   101  H    0.137560
 Sum of Mulliken charges =  -0.00000
 Mulliken charges with hydrogens summed into heavy atoms:
               1
     1  C    0.030434
     2  C    0.198372
     3  N   -0.001756
     4  C   -0.087125
     5  C    0.188296
     6  N    0.052890
     7  C    0.007417
     8  C    0.109655
     9  S    0.047908
    10  C    0.058398
    11  Fe  -0.462795
    12  C   -0.346630
    13  C   -0.351959
    14  C   -0.404110
    15  C   -0.353326
    16  N   -0.002771
    17  C    0.210401
    18  C    0.036193
    19  C   -0.082061
    20  C    0.235947
    21  C    0.004250
    22  C   -0.084080
    23  C    0.066487
    24  C    0.286503
    25  O   -0.359488
    26  O    0.004372
    27  N    0.044301
    28  C    0.243039
    29  C   -0.054688
    30  C    0.112514
    31  C    0.139589
    32  C   -0.012006
    33  C   -0.233409
    34  C    0.064294
    35  N   -0.003006
    36  C    0.248298
    37  C   -0.082712
    38  C    0.052216
    39  C    0.156676
    40  C    0.009136
    41  C   -0.151985
    42  C    0.071449
    43  N    0.084659
    44  C    0.218172
    45  C   -0.105631
    46  C    0.120739
    47  C    0.139996
    48  C   -0.006512
    49  C   -0.044200
    50  C   -0.046697
    51  C    0.329328
    52  O   -0.343337
    53  O    0.048356
 Electronic spatial extent (au):  <R**2>=          34764.3372
 Charge=             -0.0000 electrons
 Dipole moment (field-independent basis, Debye):
    X=              5.3162    Y=             -2.3949    Z=             -1.9427  Tot=              6.1459
 Quadrupole moment (field-independent basis, Debye-Ang):
   XX=           -377.7062   YY=           -296.2959   ZZ=           -292.9132
   XY=             18.9850   XZ=             29.5705   YZ=             -4.5258
 Traceless Quadrupole moment (field-independent basis, Debye-Ang):
   XX=            -55.4011   YY=             26.0092   ZZ=             29.3920
   XY=             18.9850   XZ=             29.5705   YZ=             -4.5258
 Octapole moment (field-independent basis, Debye-Ang**2):
  XXX=            504.4447  YYY=            -93.3300  ZZZ=             71.0433  XYY=            -42.6304
  XXY=           -172.3671  XXZ=           -213.7459  XZZ=              4.2969  YZZ=             11.2324
  YYZ=            -62.9524  XYZ=            -55.4854
 Hexadecapole moment (field-independent basis, Debye-Ang**3):
 XXXX=         -28487.7662 YYYY=         -15384.0625 ZZZZ=          -4979.0699 XXXY=           1473.7958
 XXXZ=           1344.4218 YYYX=            924.6127 YYYZ=            123.5234 ZZZX=            266.5423
 ZZZY=           -379.2442 XXYY=          -6773.4901 XXZZ=          -5056.9029 YYZZ=          -3545.9991
 XXYZ=            463.8366 YYXZ=            524.0201 ZZXY=           -301.2531
 N-N= 8.922088540432D+03 E-N=-2.697128836881D+04  KE= 3.868025669455D+03
  Exact polarizability: 909.733 -37.261 983.746 -49.875 117.462 468.366
 Approx polarizability:2116.902********6331.097-538.1121637.9171173.591

 ----------------------------------------------------------------------

 Electric dipole moment (input orientation):
 (Debye = 10**-18 statcoulomb cm , SI units = C m)
                  (au)            (Debye)         (10**-30 SI)
   Tot        0.241798D+01      0.614590D+01      0.205005D+02
   x          0.430211D+00      0.109349D+01      0.364748D+01
   y         -0.600687D+00     -0.152679D+01     -0.509283D+01
   z         -0.230233D+01     -0.585195D+01     -0.195200D+02

 Dipole polarizability, Alpha (input orientation).
 (esu units = cm**3 , SI units = C**2 m**2 J**-1)
 Alpha(0;0):
               (au)            (10**-24 esu)      (10**-40 SI)
   iso        0.787282D+03      0.116663D+03      0.129805D+03
   aniso      0.534762D+03      0.792435D+02      0.881703D+02
   xx         0.532124D+03      0.788527D+02      0.877354D+02
   yx        -0.168725D+03     -0.250024D+02     -0.278189D+02
   yy         0.929492D+03      0.137737D+03      0.153253D+03
   zx        -0.132372D+03     -0.196155D+02     -0.218252D+02
   zy         0.170262D+02      0.252302D+01      0.280724D+01
   zz         0.900229D+03      0.133400D+03      0.148428D+03

 First dipole hyperpolarizability, Beta (input orientation).
 ||, _|_  parallel and perpendicular components, (z) with respect to z axis,
 vector components x,y,z.  Values do not include the 1/n! factor of 1/2.
 (esu units = statvolt**-1 cm**4 , SI units = C**3 m**3 J**-2)
 Beta(0;0,0):
               (au)            (10**-30 esu)      (10**-50 SI)
   || (z)    -0.842194D+03     -0.727590D+01     -0.270038D+01
   _|_(z)    -0.280731D+03     -0.242530D+01     -0.900126D+00
   x          0.259480D+03      0.224171D+01      0.831988D+00
   y          0.422126D+04      0.364684D+02      0.135349D+02
   z         -0.421097D+04     -0.363795D+02     -0.135019D+02
   ||         0.119363D+04      0.103120D+02      0.382720D+01
   xxx        0.139035D+03      0.120115D+01      0.445796D+00
   xxy        0.546754D+02      0.472353D+00      0.175309D+00
   yxy       -0.495717D+02     -0.428261D+00     -0.158945D+00
   yyy        0.530309D+03      0.458145D+01      0.170036D+01
   xxz        0.503048D+02      0.434594D+00      0.161295D+00
   yxz       -0.193976D+03     -0.167580D+01     -0.621956D+00
   yyz        0.218315D+03      0.188607D+01      0.699997D+00
   zxz       -0.296982D+01     -0.256570D-01     -0.952233D-02
   zyz        0.822102D+03      0.710232D+01      0.263596D+01
   zzz       -0.167228D+04     -0.144472D+02     -0.536192D+01

 ----------------------------------------------------------------------

 Dipole orientation:
     6         96.41253550        -53.25116103         -7.48808186
     6         93.86343155        -52.47789088         -8.48308372
     7         93.63520582        -51.47098167        -10.88474690
     6         91.58685725        -52.53226094         -7.48974943
     6         91.14897442        -50.85034796        -11.19533433
     7         89.88452832        -51.52230705         -9.18565012
     6         78.99022338        -51.70136350        -12.27229672
     6         79.98642395        -51.83896184         -9.49238588
    16         81.99042774        -49.24893071         -8.63468320
     6         80.95505977        -48.55300589         -5.45526375
    26         86.16172297        -50.60660657         -8.83462704
     6         85.29491845        -47.46681946        -14.55012853
     6         88.75771763        -45.43105419         -6.38596622
     6         85.57837344        -53.30094524         -3.00992210
     6         84.99666912        -56.21156622        -11.62410037
     7         86.93471982        -47.18547955        -10.29429229
     6         86.36999224        -46.13671218        -12.59311014
     6         86.92903740        -43.43651554        -12.44107639
     6         87.82872826        -42.89744405        -10.23102048
     6         87.86044700        -45.22425168         -8.78003705
     6         88.85824309        -40.54115410         -8.74116269
     6         86.48960270        -41.63302091        -14.74185209
     6         89.14435289        -41.19649326        -16.05700796
     6         89.14298316        -39.35751468        -18.20514531
     8         90.91748912        -39.67002595        -19.81471594
     8         87.45333600        -37.69041602        -18.26255295
     7         87.00737367        -49.55094660         -5.41031621
     6         88.20839839        -47.32883616         -4.70537046
     6         88.69624830        -47.31723758         -2.05892481
     6         87.79249525        -49.46298190         -1.09472423
     6         86.75579552        -50.97679163         -3.19173320
     6         90.01985243        -45.12294176         -0.58019446
     6         87.78629334        -50.39270265          1.64646385
     6         85.91408489        -49.28106012          3.54749115
     7         85.36219237        -54.13828846         -7.53975092
     6         85.21258971        -54.91631340         -5.03783119
     6         84.80097493        -57.57967261         -4.97011743
     6         84.58898842        -58.44715656         -7.38146565
     6         85.04555323        -56.27329084         -9.01331616
     6         84.57232948        -59.19435762         -2.53057508
     6         84.34783855        -61.19568218         -8.32026025
     6         82.44561892        -62.95774710         -6.98010514
     7         85.37161101        -51.68055622        -12.33470246
     6         84.94621761        -54.10150502        -13.13711871
     6         84.32834876        -54.02152111        -15.81770443
     6         84.39833792        -51.67131191        -16.57475008
     6         85.01005287        -50.07742725        -14.43305962
     6         83.74898082        -56.43667520        -17.37177773
     6         83.89177910        -50.61281669        -19.27892181
     6         81.02490100        -50.27256843        -19.58097187
     6         80.07353473        -49.39860025        -22.10084410
     8         81.50059884        -48.80569717        -23.84077848
     8         77.70881178        -49.31023167        -22.12074305
     1         97.59229453        -51.61812961         -7.31519704
     1         96.19338637        -54.11931695         -5.67513093
     1         97.26454173        -54.56589323         -8.76639196
     1         95.02149662        -51.24190177        -12.14838650
     1         90.36155576        -49.95465637        -12.82819088
     1         91.12711469        -53.24721468         -5.65508596
     1         80.30297691        -52.62094891        -13.50499821
     1         77.19457764        -52.62333454        -12.39119960
     1         78.79173107        -49.76569206        -12.82210488
     1         78.39957715        -51.86872898         -8.23957175
     1         81.02329941        -53.55972126         -9.26350076
     1         82.37627642        -47.47363562         -4.50467700
     1         79.23553703        -47.49136186         -5.52356894
     1         80.64040197        -50.28201519         -4.45524905
     1         91.93101500        -44.93953242         -1.21448993
     1         89.02977184        -43.39184920         -0.91421707
     1         90.00335622        -45.53780435          1.39872671
     1         90.01117642        -43.97794261         -5.74892623
     1         90.77509220        -40.18828493         -9.27938658
     1         87.72728033        -38.92228337         -9.17555066
     1         88.77283329        -40.90968654         -6.75485931
     1         84.66521436        -46.47395301        -16.19518203
     1         85.05392489        -57.89491874        -16.86270128
     1         81.86328113        -57.05323248        -16.98125768
     1         83.92988578        -56.02869240        -19.34391757
     1         84.99828223        -57.99925953        -12.56890835
     1         86.08488944        -58.73083167         -1.27128234
     1         82.80345008        -58.80845358         -1.63021077
     1         84.67109757        -61.15640888         -3.00923135
     1         90.44302454        -40.53281471        -14.65647420
     1         89.80860885        -42.97677357        -16.74829527
     1         85.74230188        -39.86766131        -14.09876654
     1         85.20641596        -42.48764016        -16.05012186
     1         87.87505509        -35.95935913        -17.92095613
     1         76.79411559        -49.14571258        -20.56274507
     1         80.14598843        -52.04673933        -19.17067634
     1         80.41204274        -48.93658196        -18.19242694
     1         84.81966565        -48.83004993        -19.50091577
     1         84.57573681        -51.91771207        -20.66382687
     1         86.81844808        -47.81406321          4.60511085
     1         84.32374934        -48.51737474          2.55949843
     1         85.29036777        -50.73410117          4.80771368
     1         89.09256168        -51.82079832          2.23188495
     1         83.13352051        -63.41270539         -5.13394251
     1         80.65848269        -62.02509721         -6.82256036
     1         82.22708048        -64.65611884         -8.05541275
     1         85.47095956        -61.86559810         -9.86244181
     1         84.90921797        -53.88799694         -1.19440196

 Electric dipole moment (dipole orientation):
 (Debye = 10**-18 statcoulomb cm , SI units = C m)
                  (au)            (Debye)         (10**-30 SI)
   Tot        0.241798D+01      0.614590D+01      0.205005D+02
   x          0.000000D+00      0.000000D+00      0.000000D+00
   y          0.000000D+00      0.000000D+00      0.000000D+00
   z          0.241798D+01      0.614590D+01      0.205005D+02

 Dipole polarizability, Alpha (dipole orientation).
 (esu units = cm**3 , SI units = C**2 m**2 J**-1)
 Alpha(0;0):
               (au)            (10**-24 esu)      (10**-40 SI)
   iso        0.787282D+03      0.116663D+03      0.129805D+03
   aniso      0.534762D+03      0.792435D+02      0.881703D+02
   xx         0.490261D+03      0.726492D+02      0.808332D+02
   yx         0.133729D+03      0.198167D+02      0.220490D+02
   yy         0.913381D+03      0.135349D+03      0.150596D+03
   zx         0.946466D+02      0.140252D+02      0.156051D+02
   zy         0.425885D+02      0.631096D+01      0.702189D+01
   zz         0.958203D+03      0.141991D+03      0.157986D+03

 First dipole hyperpolarizability, Beta (dipole orientation).
 ||, _|_  parallel and perpendicular components, (z) with respect to z axis,
 vector components x,y,z.  Values do not include the 1/n! factor of 1/2.
 (esu units = statvolt**-1 cm**4 , SI units = C**3 m**3 J**-2)
 Beta(0;0,0):
               (au)            (10**-30 esu)      (10**-50 SI)
   || (z)     0.601413D+03      0.519574D+01      0.192835D+01
   _|_(z)     0.200471D+03      0.173191D+01      0.642783D+00
   x         -0.398374D+03     -0.344164D+01     -0.127733D+01
   y         -0.513979D+04     -0.444038D+02     -0.164800D+02
   z          0.300707D+04      0.259787D+02      0.964174D+01
   ||         0.119363D+04      0.103120D+02      0.382720D+01
   xxx        0.149412D+03      0.129080D+01      0.479068D+00
   xxy       -0.157650D+02     -0.136197D+00     -0.505482D-01
   yxy        0.399040D+01      0.344740D-01      0.127947D-01
   yyy       -0.505275D+03     -0.436518D+01     -0.162009D+01
   xxz        0.313640D+02      0.270960D+00      0.100564D+00
   yxz        0.323964D+02      0.279880D+00      0.103875D+00
   yyz        0.186581D+03      0.161191D+01      0.598245D+00
   zxz       -0.286194D+03     -0.247249D+01     -0.917640D+00
   zyz       -0.119223D+04     -0.102999D+02     -0.382270D+01
   zzz        0.784411D+03      0.677670D+01      0.251510D+01

 ----------------------------------------------------------------------
 1\1\GINC-NODE761\SP\RPBE1PBE\def2TZVP\C41H48Fe1N6O4S1\ZHARTOVSKA\05-Fe
 b-2023\0\\# polar def2tzvp empiricaldispersion=gd3bj int=grid=ultrafin
 e pbe1pbe\\1hrc_II_S\\0,1\C,0,50.125,29.427999,5.85\C,0,48.695,29.132,
 6.213\N,0,48.338001,28.929001,7.534\C,0,47.604,29.002001,5.491\C,0,47.
 007,28.622,7.538\N,0,46.546001,28.687,6.318\C,0,40.585999,29.054001,6.
 824\C,0,41.368,28.771,5.499\S,0,42.460999,27.355,5.596\C,0,42.213001,2
 6.568001,3.988\Fe,0,44.630001,28.127001,5.911\C,0,43.603001,27.259001,
 9.122\C,0,46.150002,25.184,5.602\C,0,44.907001,28.735001,2.567\C,0,43.
 827999,31.351999,6.47\N,0,44.854,26.575001,7.169\C,0,44.331001,26.333,
 8.412\C,0,44.604,24.936001,8.743\C,0,45.273998,24.379999,7.785\C,0,45.
 455002,25.382,6.751\C,0,45.922001,22.989,7.441\C,0,44.137001,24.309,10
 .098\C,0,45.389999,24.290001,11.068\C,0,45.165001,23.629999,12.392\O,0
 ,45.941002,24.023001,13.329\O,0,44.259998,22.763,12.481\N,0,45.380001,
 27.146,4.404\C,0,46.044998,25.929001,4.454\C,0,46.548,25.580999,3.168\
 C,0,46.194,26.542999,2.315\C,0,45.474998,27.582001,3.075\C,0,47.349998
 ,24.278,2.836\C,0,46.459999,26.659,0.811\C,0,45.651001,25.816999,-0.17
 7\N,0,44.377998,29.757,4.719\C,0,44.544998,29.825001,3.342\C,0,44.3689
 99,31.176001,2.919\C,0,44.042,31.934999,4.\C,0,44.099998,31.041,5.151\
 C,0,44.499001,31.68,1.456\C,0,43.861,33.464001,4.089\C,0,43.018002,34.
 167999,3.003\N,0,43.902,29.128,7.459\C,0,43.633999,30.469,7.505\C,0,43
 .058998,30.773001,8.808\C,0,42.995998,29.669001,9.505\C,0,43.497002,28
 .577999,8.693\C,0,42.639999,32.208,9.219\C,0,42.465,29.476,10.959\C,0,
 40.939999,29.306999,10.886\C,0,40.196999,29.179001,12.181\O,0,40.76900
 1,29.121,13.27\O,0,38.963001,29.108,11.98\H,0,50.73588953,28.58256271,
 6.08864507\H,0,50.19200647,29.63192647,4.80175207\H,0,50.463948,30.279
 9867,6.40148092\H,0,48.93797978,28.99433797,8.33134343\H,0,46.43260453
 ,28.36822655,8.40435378\H,0,47.54596316,29.12168332,4.42929954\H,0,41.
 16437002,29.70302112,7.44782678\H,0,39.65104424,29.52058008,6.59364469
 \H,0,40.40770713,28.13196975,7.33680638\H,0,40.66020526,28.60254577,4.
 7144302\H,0,41.94996043,29.63513372,5.2550841\H,0,43.02944826,25.90694
 312,3.78473575\H,0,41.29867304,26.01234073,4.00008462\H,0,42.16406065,
 27.31879595,3.22720319\H,0,48.28302422,24.29029546,3.3596515\H,0,46.78
 237609,23.42295319,3.13865545\H,0,47.53270016,24.23024766,1.78279554\H
 ,0,46.84511617,24.37062818,5.59005917\H,0,46.86500258,22.90189459,7.93
 905689\H,0,45.27293134,22.20296719,7.76620916\H,0,46.06896696,22.91570
 971,6.38367813\H,0,43.10839848,26.95892353,10.02212324\H,0,43.3847502,
 32.90398565,8.89365462\H,0,41.70246642,32.45002234,8.76363438\H,0,42.5
 4360831,32.26035624,10.28336256\H,0,43.76130222,32.39232345,6.7111982\
 H,0,45.39944518,31.29504211,1.02482984\H,0,43.65827662,31.34268814,0.8
 8652372\H,0,44.5288609,32.7495573,1.44854583\H,0,46.18999377,23.781344
 98,10.57183731\H,0,45.69205221,25.30113805,11.24482115\H,0,43.78735543
 ,23.31085068,9.9356858\H,0,43.35604218,24.90355967,10.52403065\H,0,44.
 49096494,21.8360694,12.57615216\H,0,38.63153115,28.80791778,11.1304834
 3\H,0,40.54232763,30.15170124,10.36328057\H,0,40.73567469,28.43249337,
 10.30428574\H,0,42.90579302,28.60272536,11.39258149\H,0,42.7063086,30.
 33494643,11.54966166\H,0,46.2038094,24.93703935,-0.43189977\H,0,44.720
 90692,25.53647763,0.27147828\H,0,45.46235816,26.3884645,-1.06172655\H,
 0,47.2122664,27.32951598,0.451275\H,0,43.55539187,34.1666858,2.0777376
 6\H,0,42.09128447,33.64794105,2.87796266\H,0,42.82333817,35.17706863,3
 .30096722\H,0,44.30851951,34.02349085,4.88373102\H,0,44.73660978,28.78
 91477,1.51204267\\Version=AM64L-G16RevA.03\State=1-A\HF=-3880.4971191\
 RMSD=2.989e-09\Dipole=0.4302114,-0.6006868,-2.302334\Polar=532.1241011
 ,-168.7245505,929.4923053,-132.3721002,17.0261694,900.2287152\HyperPol
 ar=139.0349581,54.6753926,-49.5716887,530.308665,50.3048061,-193.97568
 94,218.314987,-2.9698245,822.1023728,-1672.2769642\Quadrupole=25.07246
 63,24.7300973,-49.8025636,3.8324054,8.7279263,-4.0962276\PG=C01 [X(C41
 H48Fe1N6O4S1)]\\@


 DIATOMIC MOLECULES ARE PECULIAR BECAUSE THEY ONLY HAVE TWO ENDS,
 AND THESE ENDS ARE VERY CLOSE TOGETHER.
 KLAUS RUEDENBERG, REV.MOD.PHYS. PG 176, 32, (1960)
 Job cpu time:       9 days 19 hours 55 minutes 56.6 seconds.
 Elapsed time:       2 days 11 hours 13 minutes 22.9 seconds.
 File lengths (MBytes):  RWF=   1955 Int=      0 D2E=      0 Chk=    249 Scr=      1
 Normal termination of Gaussian 16 at Sun Feb  5 23:30:32 2023.
