 Entering Gaussian System, Link 0=g16
 Input=/net/homes/chemie/zhartovska/work/BioModel/Konrad/1jdl/1jdl05/1jdl05.com
 Output=/net/homes/chemie/zhartovska/work/BioModel/Konrad/1jdl/1jdl05/1jdl05.log
 Initial command:
 /afs/math/software/gaussian/g16.A03/g16/l1.exe "/scratch/zhartovska_gaussian.abesdbk/Gau-23561.inp" -scrdir="/scratch/zhartovska_gaussian.abesdbk/"
 Entering Link 1 = /afs/math/software/gaussian/g16.A03/g16/l1.exe PID=     23562.
  
 Copyright (c) 1988,1990,1992,1993,1995,1998,2003,2009,2016,
            Gaussian, Inc.  All Rights Reserved.
  
 This is part of the Gaussian(R) 16 program.  It is based on
 the Gaussian(R) 09 system (copyright 2009, Gaussian, Inc.),
 the Gaussian(R) 03 system (copyright 2003, Gaussian, Inc.),
 the Gaussian(R) 98 system (copyright 1998, Gaussian, Inc.),
 the Gaussian(R) 94 system (copyright 1995, Gaussian, Inc.),
 the Gaussian 92(TM) system (copyright 1992, Gaussian, Inc.),
 the Gaussian 90(TM) system (copyright 1990, Gaussian, Inc.),
 the Gaussian 88(TM) system (copyright 1988, Gaussian, Inc.),
 the Gaussian 86(TM) system (copyright 1986, Carnegie Mellon
 University), and the Gaussian 82(TM) system (copyright 1983,
 Carnegie Mellon University). Gaussian is a federally registered
 trademark of Gaussian, Inc.
  
 This software contains proprietary and confidential information,
 including trade secrets, belonging to Gaussian, Inc.
  
 This software is provided under written license and may be
 used, copied, transmitted, or stored only in accord with that
 written license.
  
 The following legend is applicable only to US Government
 contracts under FAR:
  
                    RESTRICTED RIGHTS LEGEND
  
 Use, reproduction and disclosure by the US Government is
 subject to restrictions as set forth in subparagraphs (a)
 and (c) of the Commercial Computer Software - Restricted
 Rights clause in FAR 52.227-19.
  
 Gaussian, Inc.
 340 Quinnipiac St., Bldg. 40, Wallingford CT 06492
  
  
 ---------------------------------------------------------------
 Warning -- This program may not be used in any manner that
 competes with the business of Gaussian, Inc. or will provide
 assistance to any competitor of Gaussian, Inc.  The licensee
 of this program is prohibited from giving any competitor of
 Gaussian, Inc. access to this program.  By using this program,
 the user acknowledges that Gaussian, Inc. is engaged in the
 business of creating and licensing software in the field of
 computational chemistry and represents and warrants to the
 licensee that it is not a competitor of Gaussian, Inc. and that
 it will not use this program in any manner prohibited above.
 ---------------------------------------------------------------
  

 Cite this work as:
 Gaussian 16, Revision A.03,
 M. J. Frisch, G. W. Trucks, H. B. Schlegel, G. E. Scuseria, 
 M. A. Robb, J. R. Cheeseman, G. Scalmani, V. Barone, 
 G. A. Petersson, H. Nakatsuji, X. Li, M. Caricato, A. V. Marenich, 
 J. Bloino, B. G. Janesko, R. Gomperts, B. Mennucci, H. P. Hratchian, 
 J. V. Ortiz, A. F. Izmaylov, J. L. Sonnenberg, D. Williams-Young, 
 F. Ding, F. Lipparini, F. Egidi, J. Goings, B. Peng, A. Petrone, 
 T. Henderson, D. Ranasinghe, V. G. Zakrzewski, J. Gao, N. Rega, 
 G. Zheng, W. Liang, M. Hada, M. Ehara, K. Toyota, R. Fukuda, 
 J. Hasegawa, M. Ishida, T. Nakajima, Y. Honda, O. Kitao, H. Nakai, 
 T. Vreven, K. Throssell, J. A. Montgomery, Jr., J. E. Peralta, 
 F. Ogliaro, M. J. Bearpark, J. J. Heyd, E. N. Brothers, K. N. Kudin, 
 V. N. Staroverov, T. A. Keith, R. Kobayashi, J. Normand, 
 K. Raghavachari, A. P. Rendell, J. C. Burant, S. S. Iyengar, 
 J. Tomasi, M. Cossi, J. M. Millam, M. Klene, C. Adamo, R. Cammi, 
 J. W. Ochterski, R. L. Martin, K. Morokuma, O. Farkas, 
 J. B. Foresman, and D. J. Fox, Gaussian, Inc., Wallingford CT, 2016.
 
 ******************************************
 Gaussian 16:  ES64L-G16RevA.03 25-Dec-2016
                10-Nov-2022 
 ******************************************
 %nprocs=12
 Will use up to   12 processors via shared memory.
 %mem=16GB
 %oldchk=1jdl_II_S.chk
 %chk=1jdl_II_Q.chk
 Copying data from "1jdl_II_S.chk" to current chk file "1jdl_II_Q.chk"
 IOpt=  2 FromEx=T IUOpen= 4 IOptOp= 5 NList=   0 IFRang= 0 IUIn= 4 IUOut= 2.
 ----------------------------------------------------------------------
 # PBE1PBE/def2TZVP empiricaldispersion=GD3BJ int=(grid=ultrafine) geom
 =check pop=nbo
 ----------------------------------------------------------------------
 1/29=2,38=1,172=1/1;
 2/12=2,40=1/2;
 3/5=44,7=101,11=2,14=-4,25=1,30=1,74=-13,75=-5,124=41/1,2,3;
 4//1;
 5/5=2,38=5/2;
 6/7=2,8=2,9=2,10=2,28=1,40=1/1,7;
 99/5=1,9=1/99;
 ---------
 1jdl_II_Q
 ---------
 Structure from the checkpoint file:  "1jdl_II_Q.chk"
 Charge =  0 Multiplicity = 5
 Z-Matrix found in chk file.
 C,0,4.158,5.19,5.944
 C,0,3.654,5.545,4.585
 N,0,2.436,6.156,4.378
 C,0,4.171,5.309,3.357
 C,0,2.221,6.273,3.081
 N,0,3.258,5.765,2.439
 C,0,3.71028429,7.58950733,-3.34905777
 C,0,4.476,6.407,-2.727
 S,0,3.575,5.085,-1.904
 C,0,4.526,3.672,-2.412
 C,0,0.469,6.703,-0.316
 C,0,2.107,2.325,0.872
 C,0,6.617,4.059,0.951
 C,0,4.909,8.49,0.311
 C,0,0.529,5.333,-0.054
 C,0,-0.599,4.436,-0.141
 C,0,-0.122,3.206,0.19
 C,0,1.282,3.36,0.488
 C,0,-0.89,1.893,0.194
 C,0,-2.054,4.856,-0.39
 C,0,-2.672,5.169,0.972
 C,0,-4.095,5.731,0.903
 O,0,-4.685,5.79,-0.194
 O,0,-4.629,6.109,1.966
 C,0,3.482,2.435,1.023
 C,0,4.36,1.342,1.359
 C,0,5.627,1.809,1.146
 C,0,5.525,3.205,0.953
 C,0,3.908,-0.02,1.868
 C,0,6.819,1.12,0.84
 C,0,7.02,-0.37,0.624
 C,0,6.552,5.405,0.736
 C,0,7.691,6.299,0.727
 C,0,7.207,7.503,0.38
 C,0,5.762,7.404,0.427
 C,0,9.137,5.934,1.069
 C,0,7.883,8.632,-0.134
 C,0,9.377,8.909,-0.263
 C,0,3.543,8.408,0.162
 C,0,2.696,9.541,-0.128
 C,0,1.45,9.042,-0.386
 C,0,1.554,7.588,-0.223
 C,0,3.117,11.011,-0.209
 C,0,0.233,9.839,-0.865
 C,0,0.252,9.794,-2.397
 C,0,-0.811,10.655,-3.049
 O,0,-0.833,10.704,-4.298
 O,0,-1.624,11.279,-2.332
 N,0,1.685,4.666,0.313
 N,0,4.197,3.59,0.784
 N,0,5.367,6.089,0.529
 N,0,2.848,7.211,0.114
 Fe,0,3.539,5.379,0.397
 H,0,-4.08289108,6.37352937,2.70990138
 H,0,-2.69042254,4.26929044,1.55086382
 H,0,-2.04958924,5.88209345,1.47100158
 H,0,-2.08099894,5.72660813,-1.01146001
 H,0,-2.58927897,4.05658167,-0.858302
 H,0,0.30275608,10.8519916,-0.52753577
 H,0,-0.66617936,9.39101942,-0.49663892
 H,0,1.2120615,10.12351759,-2.73552633
 H,0,0.10871288,8.7808152,-2.70977046
 H,0,-1.30420001,11.87323443,-1.64920178
 H,0,-0.4762622,7.10906107,-0.61009825
 H,0,5.345391,9.46655284,0.33941559
 H,0,7.58121618,3.63154556,1.13119394
 H,0,1.65753975,1.37367122,1.066574
 H,0,4.05504399,11.0858122,-0.71829031
 H,0,2.37508003,11.56548833,-0.74472144
 H,0,3.21506201,11.40890485,0.77941063
 H,0,-0.31595655,1.14557289,0.70068218
 H,0,-1.8241989,2.02776587,0.69799462
 H,0,-1.07007772,1.58205948,-0.81386309
 H,0,4.63639232,-0.40539869,2.55050457
 H,0,2.9678525,0.08047284,2.36892703
 H,0,3.80212241,-0.69218885,1.04225665
 H,0,9.75967258,6.79629459,0.9522657
 H,0,9.18846784,5.59130097,2.08132822
 H,0,9.47407021,5.15915418,0.41257207
 H,0,10.08683079,8.18319704,0.07500932
 H,0,9.71546774,9.82916621,-0.69152506
 H,0,7.24676051,9.41587025,-0.48846686
 H,0,8.00929443,-0.77345478,0.5655126
 H,0,6.1722984,-1.01616371,0.53032795
 H,0,7.69609611,1.72592209,0.74801725
 H,0,5.45491079,3.65769424,-1.8811327
 H,0,3.97876612,2.77791088,-2.19743132
 H,0,4.71683845,3.72974903,-3.46325912
 H,0,5.05286294,5.95778943,-3.50824197
 H,0,4.29094552,8.01299356,-4.14176954
 H,0,2.7749409,7.2441009,-3.73729369
 H,0,3.53294321,8.33303976,-2.60031906
 H,0,5.16138634,6.81440276,-2.01343952
 H,0,5.10077555,5.66775422,6.11080874
 H,0,3.45614317,5.51860488,6.68177762
 H,0,4.27845936,4.12909879,6.01384383
 H,0,5.11453995,4.85254029,3.14187936
 H,0,1.35422561,6.70570155,2.62671867
 H,0,1.8129322,6.46256665,5.09758558
 Recover connectivity data from disk.
 Stoichiometry    C41H46FeN6O4S(5)
 Framework group  C1[X(C41H46FeN6O4S)]
 Deg. of freedom   291
 Full point group                 C1      NOp   1
 Largest Abelian subgroup         C1      NOp   1
 Largest concise Abelian subgroup C1      NOp   1
                         Standard orientation:                         
 ---------------------------------------------------------------------
 Center     Atomic      Atomic             Coordinates (Angstroms)
 Number     Number       Type             X           Y           Z
 ---------------------------------------------------------------------
      1          6           0        2.628197   -1.653437    4.968101
      2          6           0        1.748235   -1.176809    3.861118
      3          7           0        0.372586   -1.186335    3.945932
      4          6           0        2.046149   -0.743884    2.614204
      5          6           0       -0.138560   -0.788081    2.796042
      6          7           0        0.855806   -0.515189    1.969990
      7          6           0       -0.739312    3.003911   -2.731769
      8          6           0        0.569495    2.199125   -2.627158
      9         16           0        0.513857    0.426977   -2.321855
     10          6           0        1.846977   -0.128049   -3.358084
     11          6           0       -2.575871   -0.206679   -0.122090
     12          6           0        0.982946   -3.406362   -0.720520
     13          6           0        4.226628    0.134754   -0.180032
     14          6           0        0.698568    3.174317    0.948896
     15          6           0       -1.883354   -1.388270   -0.393026
     16          6           0       -2.510979   -2.634633   -0.763470
     17          6           0       -1.496928   -3.524758   -0.934836
     18          6           0       -0.265109   -2.825284   -0.657178
     19          6           0       -1.611219   -4.971493   -1.390583
     20          6           0       -4.022390   -2.900731   -0.779420
     21          6           0       -4.413907   -3.359814    0.624465
     22          6           0       -5.920021   -3.549819    0.827078
     23          8           0       -6.694327   -3.439326   -0.144123
     24          8           0       -6.328114   -3.822468    1.974742
     25          6           0        2.177199   -2.711111   -0.594377
     26          6           0        3.486565   -3.299901   -0.725974
     27          6           0        4.357073   -2.248457   -0.799642
     28          6           0        3.630986   -1.086835   -0.453372
     29          6           0        3.777097   -4.794450   -0.744555
     30          6           0        5.635529   -2.155796   -1.388016
     31          6           0        6.403027   -3.220598   -2.152412
     32          6           0        3.549816    1.279575    0.125707
     33          6           0        4.168260    2.558566    0.405614
     34          6           0        3.155792    3.428939    0.552724
     35          6           0        1.936804    2.647933    0.617000
     36          6           0        5.667786    2.836749    0.528651
     37          6           0        3.160709    4.839283    0.470760
     38          6           0        4.329621    5.815657    0.394968
     39          6           0       -0.499300    2.505772    0.834699
     40          6           0       -1.788819    3.127881    1.022625
     41          6           0       -2.726000    2.206661    0.646958
     42          6           0       -1.979690    1.007552    0.251152
     43          6           0       -2.062936    4.563454    1.479455
     44          6           0       -4.237221    2.435493    0.549054
     45          6           0       -4.522676    2.884367   -0.888457
     46          6           0       -5.962039    3.292759   -1.128965
     47          8           0       -6.264316    3.711526   -2.267450
     48          8           0       -6.793143    3.198227   -0.199038
     49          7           0       -0.504776   -1.504065   -0.347971
     50          7           0        2.263013   -1.346479   -0.413305
     51          7           0        2.172036    1.345818    0.236454
     52          7           0       -0.609798    1.205371    0.371142
     53         26           0        0.839391   -0.064255   -0.077962
     54          1           0       -5.804586   -3.577348    2.741184
     55          1           0       -3.924645   -4.289841    0.825894
     56          1           0       -4.066100   -2.632811    1.328309
     57          1           0       -4.548121   -2.002941   -1.029380
     58          1           0       -4.250264   -3.667102   -1.490509
     59          1           0       -4.537458    3.197891    1.237173
     60          1           0       -4.759700    1.525670    0.759141
     61          1           0       -3.889817    3.716179   -1.117540
     62          1           0       -4.281859    2.079274   -1.550826
     63          1           0       -6.622239    3.626692    0.642870
     64          1           0       -3.642398   -0.228639   -0.205385
     65          1           0        0.671568    4.176671    1.322336
     66          1           0        5.295065    0.183535   -0.211053
     67          1           0        1.034461   -4.463553   -0.877342
     68          1           0       -1.376548    5.228193    0.997902
     69          1           0       -3.064634    4.835344    1.219496
     70          1           0       -1.939175    4.629973    2.540190
     71          1           0       -0.680933   -5.472827   -1.222858
     72          1           0       -2.384793   -5.460133   -0.835862
     73          1           0       -1.848328   -4.999194   -2.433613
     74          1           0        4.725511   -4.979168   -0.284893
     75          1           0        3.012285   -5.313201   -0.205241
     76          1           0        3.797660   -5.141240   -1.756590
     77          1           0        5.822972    3.878461    0.717473
     78          1           0        6.071701    2.263709    1.336968
     79          1           0        6.157329    2.562616   -0.382447
     80          1           0        5.334741    5.448999    0.409008
     81          1           0        4.144695    6.867410    0.327746
     82          1           0        2.192087    5.293772    0.460203
     83          1           0        7.433211   -3.065857   -2.396700
     84          1           0        5.913501   -4.125429   -2.446597
     85          1           0        6.129144   -1.212384   -1.282102
     86          1           0        2.781570    0.135138   -2.908453
     87          1           0        1.792246   -1.190655   -3.471106
     88          1           0        1.769671    0.337235   -4.318519
     89          1           0        1.104795    2.345717   -3.541961
     90          1           0       -0.575583    3.874710   -3.331603
     91          1           0       -1.496102    2.396978   -3.183213
     92          1           0       -1.055617    3.299214   -1.753174
     93          1           0        1.148191    2.637383   -1.841066
     94          1           0        3.288583   -0.865035    5.263418
     95          1           0        2.025308   -1.945079    5.802589
     96          1           0        3.201652   -2.491951    4.632027
     97          1           0        3.025852   -0.605726    2.206780
     98          1           0       -1.181018   -0.701033    2.571091
     99          1           0       -0.155405   -1.453126    4.752188
 ---------------------------------------------------------------------
 Rotational constants (GHZ):           0.0644837           0.0447948           0.0338920
 Standard basis: def2TZVP (5D, 7F)
 There are  2206 symmetry adapted cartesian basis functions of A   symmetry.
 There are  1939 symmetry adapted basis functions of A   symmetry.
  1939 basis functions,  3140 primitive gaussians,  2206 cartesian basis functions
   206 alpha electrons      202 beta electrons
       nuclear repulsion energy      8886.8140228756 Hartrees.
 NAtoms=   99 NActive=   99 NUniq=   99 SFac= 1.00D+00 NAtFMM=   60 NAOKFM=T Big=T
 Integral buffers will be    131072 words long.
 Raffenetti 2 integral format.
 Two-electron integral symmetry is turned on.
 Nuclear repulsion after empirical dispersion term =     8886.6652641962 Hartrees.
 One-electron integrals computed using PRISM.
   1 Symmetry operations used in ECPInt.
 ECPInt:  NShTT=  299151 NPrTT=  925475 LenC2=  219721 LenP2D=  439219.
 LDataN:  DoStor=T MaxTD1= 6 Len=  172
 NBasis=  1939 RedAO= T EigKep=  3.47D-06  NBF=  1939
 NBsUse=  1939 1.00D-06 EigRej= -1.00D+00 NBFU=  1939
 ExpMin= 4.20D-02 ExpMax= 3.01D+05 ExpMxC= 2.91D+03 IAcc=3 IRadAn=         5 AccDes= 0.00D+00
 Harris functional with IExCor= 1009 and IRadAn=       5 diagonalized for initial guess.
 HarFok:  IExCor= 1009 AccDes= 0.00D+00 IRadAn=         5 IDoV= 1 UseB2=F ITyADJ=14
 ICtDFT=  3500011 ScaDFX=  1.000000  1.000000  1.000000  1.000000
 FoFCou: FMM=F IPFlag=           0 FMFlag=      100000 FMFlg1=        2001
         NFxFlg=           0 DoJE=T BraDBF=F KetDBF=T FulRan=T
         wScrn=  0.000000 ICntrl=       500 IOpCl=  0 I1Cent=   200000004 NGrid=           0
         NMat0=    1 NMatS0=      1 NMatT0=    0 NMatD0=    1 NMtDS0=    0 NMtDT0=    0
 Petite list used in FoFCou.
 Initial guess <Sx>= 0.0000 <Sy>= 0.0000 <Sz>= 2.0000 <S**2>= 6.0000 S= 2.0000
 Requested convergence on RMS density matrix=1.00D-08 within 128 cycles.
 Requested convergence on MAX density matrix=1.00D-06.
 Requested convergence on             energy=1.00D-06.
 No special actions if energy rises.
 EnCoef did     8 forward-backward iterations
 EnCoef did   100 forward-backward iterations
 EnCoef did    16 forward-backward iterations
 EnCoef did     2 forward-backward iterations
 Restarting incremental Fock formation.
 Restarting incremental Fock formation.
 SCF Done:  E(UPBE1PBE) =  -3879.36097435     A.U. after   57 cycles
            NFock= 57  Conv=0.56D-08     -V/T= 2.0031
 <Sx>= 0.0000 <Sy>= 0.0000 <Sz>= 2.0000 <S**2>= 6.0857 S= 2.0171
 <L.S>= 0.000000000000E+00
 Annihilation of the first spin contaminant:
 S**2 before annihilation     6.0857,   after     6.0025

 **********************************************************************

            Population analysis using the SCF density.

 **********************************************************************

 Orbital symmetries:
 Alpha Orbitals:
       Occupied  (A) (A) (A) (A) (A) (A) (A) (A) (A) (A) (A) (A)
                 (A) (A) (A) (A) (A) (A) (A) (A) (A) (A) (A) (A)
                 (A) (A) (A) (A) (A) (A) (A) (A) (A) (A) (A) (A)
                 (A) (A) (A) (A) (A) (A) (A) (A) (A) (A) (A) (A)
                 (A) (A) (A) (A) (A) (A) (A) (A) (A) (A) (A) (A)
                 (A) (A) (A) (A) (A) (A) (A) (A) (A) (A) (A) (A)
                 (A) (A) (A) (A) (A) (A) (A) (A) (A) (A) (A) (A)
                 (A) (A) (A) (A) (A) (A) (A) (A) (A) (A) (A) (A)
                 (A) (A) (A) (A) (A) (A) (A) (A) (A) (A) (A) (A)
                 (A) (A) (A) (A) (A) (A) (A) (A) (A) (A) (A) (A)
                 (A) (A) (A) (A) (A) (A) (A) (A) (A) (A) (A) (A)
                 (A) (A) (A) (A) (A) (A) (A) (A) (A) (A) (A) (A)
                 (A) (A) (A) (A) (A) (A) (A) (A) (A) (A) (A) (A)
                 (A) (A) (A) (A) (A) (A) (A) (A) (A) (A) (A) (A)
                 (A) (A) (A) (A) (A) (A) (A) (A) (A) (A) (A) (A)
                 (A) (A) (A) (A) (A) (A) (A) (A) (A) (A) (A) (A)
                 (A) (A) (A) (A) (A) (A) (A) (A) (A) (A) (A) (A)
                 (A) (A)
       Virtual   (A) (A) (A) (A) (A) (A) (A) (A) (A) (A) (A) (A)
                 (A) (A) (A) (A) (A) (A) (A) (A) (A) (A) (A) (A)
                 (A) (A) (A) (A) (A) (A) (A) (A) (A) (A) (A) (A)
                 (A) (A) (A) (A) (A) (A) (A) (A) (A) (A) (A) (A)
                 (A) (A) (A) (A) (A) (A) (A) (A) (A) (A) (A) (A)
                 (A) (A) (A) (A) (A) (A) (A) (A) (A) (A) (A) (A)
                 (A) (A) (A) (A) (A) (A) (A) (A) (A) (A) (A) (A)
                 (A) (A) (A) (A) (A) (A) (A) (A) (A) (A) (A) (A)
                 (A) (A) (A) (A) (A) (A) (A) (A) (A) (A) (A) (A)
                 (A) (A) (A) (A) (A) (A) (A) (A) (A) (A) (A) (A)
                 (A) (A) (A) (A) (A) (A) (A) (A) (A) (A) (A) (A)
                 (A) (A) (A) (A) (A) (A) (A) (A) (A) (A) (A) (A)
                 (A) (A) (A) (A) (A) (A) (A) (A) (A) (A) (A) (A)
                 (A) (A) (A) (A) (A) (A) (A) (A) (A) (A) (A) (A)
                 (A) (A) (A) (A) (A) (A) (A) (A) (A) (A) (A) (A)
                 (A) (A) (A) (A) (A) (A) (A) (A) (A) (A) (A) (A)
                 (A) (A) (A) (A) (A) (A) (A) (A) (A) (A) (A) (A)
                 (A) (A) (A) (A) (A) (A) (A) (A) (A) (A) (A) (A)
                 (A) (A) (A) (A) (A) (A) (A) (A) (A) (A) (A) (A)
                 (A) (A) (A) (A) (A) (A) (A) (A) (A) (A) (A) (A)
                 (A) (A) (A) (A) (A) (A) (A) (A) (A) (A) (A) (A)
                 (A) (A) (A) (A) (A) (A) (A) (A) (A) (A) (A) (A)
                 (A) (A) (A) (A) (A) (A) (A) (A) (A) (A) (A) (A)
                 (A) (A) (A) (A) (A) (A) (A) (A) (A) (A) (A) (A)
                 (A) (A) (A) (A) (A) (A) (A) (A) (A) (A) (A) (A)
                 (A) (A) (A) (A) (A) (A) (A) (A) (A) (A) (A) (A)
                 (A) (A) (A) (A) (A) (A) (A) (A) (A) (A) (A) (A)
                 (A) (A) (A) (A) (A) (A) (A) (A) (A) (A) (A) (A)
                 (A) (A) (A) (A) (A) (A) (A) (A) (A) (A) (A) (A)
                 (A) (A) (A) (A) (A) (A) (A) (A) (A) (A) (A) (A)
                 (A) (A) (A) (A) (A) (A) (A) (A) (A) (A) (A) (A)
                 (A) (A) (A) (A) (A) (A) (A) (A) (A) (A) (A) (A)
                 (A) (A) (A) (A) (A) (A) (A) (A) (A) (A) (A) (A)
                 (A) (A) (A) (A) (A) (A) (A) (A) (A) (A) (A) (A)
                 (A) (A) (A) (A) (A) (A) (A) (A) (A) (A) (A) (A)
                 (A) (A) (A) (A) (A) (A) (A) (A) (A) (A) (A) (A)
                 (A) (A) (A) (A) (A) (A) (A) (A) (A) (A) (A) (A)
                 (A) (A) (A) (A) (A) (A) (A) (A) (A) (A) (A) (A)
                 (A) (A) (A) (A) (A) (A) (A) (A) (A) (A) (A) (A)
                 (A) (A) (A) (A) (A) (A) (A) (A) (A) (A) (A) (A)
                 (A) (A) (A) (A) (A) (A) (A) (A) (A) (A) (A) (A)
                 (A) (A) (A) (A) (A) (A) (A) (A) (A) (A) (A) (A)
                 (A) (A) (A) (A) (A) (A) (A) (A) (A) (A) (A) (A)
                 (A) (A) (A) (A) (A) (A) (A) (A) (A) (A) (A) (A)
                 (A) (A) (A) (A) (A) (A) (A) (A) (A) (A) (A) (A)
                 (A) (A) (A) (A) (A) (A) (A) (A) (A) (A) (A) (A)
                 (A) (A) (A) (A) (A) (A) (A) (A) (A) (A) (A) (A)
                 (A) (A) (A) (A) (A) (A) (A) (A) (A) (A) (A) (A)
                 (A) (A) (A) (A) (A) (A) (A) (A) (A) (A) (A) (A)
                 (A) (A) (A) (A) (A) (A) (A) (A) (A) (A) (A) (A)
                 (A) (A) (A) (A) (A) (A) (A) (A) (A) (A) (A) (A)
                 (A) (A) (A) (A) (A) (A) (A) (A) (A) (A) (A) (A)
                 (A) (A) (A) (A) (A) (A) (A) (A) (A) (A) (A) (A)
                 (A) (A) (A) (A) (A) (A) (A) (A) (A) (A) (A) (A)
                 (A) (A) (A) (A) (A) (A) (A) (A) (A) (A) (A) (A)
                 (A) (A) (A) (A) (A) (A) (A) (A) (A) (A) (A) (A)
                 (A) (A) (A) (A) (A) (A) (A) (A) (A) (A) (A) (A)
                 (A) (A) (A) (A) (A) (A) (A) (A) (A) (A) (A) (A)
                 (A) (A) (A) (A) (A) (A) (A) (A) (A) (A) (A) (A)
                 (A) (A) (A) (A) (A) (A) (A) (A) (A) (A) (A) (A)
                 (A) (A) (A) (A) (A) (A) (A) (A) (A) (A) (A) (A)
                 (A) (A) (A) (A) (A) (A) (A) (A) (A) (A) (A) (A)
                 (A) (A) (A) (A) (A) (A) (A) (A) (A) (A) (A) (A)
                 (A) (A) (A) (A) (A) (A) (A) (A) (A) (A) (A) (A)
                 (A) (A) (A) (A) (A) (A) (A) (A) (A) (A) (A) (A)
                 (A) (A) (A) (A) (A) (A) (A) (A) (A) (A) (A) (A)
                 (A) (A) (A) (A) (A) (A) (A) (A) (A) (A) (A) (A)
                 (A) (A) (A) (A) (A) (A) (A) (A) (A) (A) (A) (A)
                 (A) (A) (A) (A) (A) (A) (A) (A) (A) (A) (A) (A)
                 (A) (A) (A) (A) (A) (A) (A) (A) (A) (A) (A) (A)
                 (A) (A) (A) (A) (A) (A) (A) (A) (A) (A) (A) (A)
                 (A) (A) (A) (A) (A) (A) (A) (A) (A) (A) (A) (A)
                 (A) (A) (A) (A) (A) (A) (A) (A) (A) (A) (A) (A)
                 (A) (A) (A) (A) (A) (A) (A) (A) (A) (A) (A) (A)
                 (A) (A) (A) (A) (A) (A) (A) (A) (A) (A) (A) (A)
                 (A) (A) (A) (A) (A) (A) (A) (A) (A) (A) (A) (A)
                 (A) (A) (A) (A) (A) (A) (A) (A) (A) (A) (A) (A)
                 (A) (A) (A) (A) (A) (A) (A) (A) (A) (A) (A) (A)
                 (A) (A) (A) (A) (A) (A) (A) (A) (A) (A) (A) (A)
                 (A) (A) (A) (A) (A) (A) (A) (A) (A) (A) (A) (A)
                 (A) (A) (A) (A) (A) (A) (A) (A) (A) (A) (A) (A)
                 (A) (A) (A) (A) (A) (A) (A) (A) (A) (A) (A) (A)
                 (A) (A) (A) (A) (A) (A) (A) (A) (A) (A) (A) (A)
                 (A) (A) (A) (A) (A) (A) (A) (A) (A) (A) (A) (A)
                 (A) (A) (A) (A) (A) (A) (A) (A) (A) (A) (A) (A)
                 (A) (A) (A) (A) (A) (A) (A) (A) (A) (A) (A) (A)
                 (A) (A) (A) (A) (A) (A) (A) (A) (A) (A) (A) (A)
                 (A) (A) (A) (A) (A) (A) (A) (A) (A) (A) (A) (A)
                 (A) (A) (A) (A) (A) (A) (A) (A) (A) (A) (A) (A)
                 (A) (A) (A) (A) (A) (A) (A) (A) (A) (A) (A) (A)
                 (A) (A) (A) (A) (A) (A) (A) (A) (A) (A) (A) (A)
                 (A) (A) (A) (A) (A) (A) (A) (A) (A) (A) (A) (A)
                 (A) (A) (A) (A) (A) (A) (A) (A) (A) (A) (A) (A)
                 (A) (A) (A) (A) (A) (A) (A) (A) (A) (A) (A) (A)
                 (A) (A) (A) (A) (A) (A) (A) (A) (A) (A) (A) (A)
                 (A) (A) (A) (A) (A) (A) (A) (A) (A) (A) (A) (A)
                 (A) (A) (A) (A) (A) (A) (A) (A) (A) (A) (A) (A)
                 (A) (A) (A) (A) (A) (A) (A) (A) (A) (A) (A) (A)
                 (A) (A) (A) (A) (A) (A) (A) (A) (A) (A) (A) (A)
                 (A) (A) (A) (A) (A) (A) (A) (A) (A) (A) (A) (A)
                 (A) (A) (A) (A) (A) (A) (A) (A) (A) (A) (A) (A)
                 (A) (A) (A) (A) (A) (A) (A) (A) (A) (A) (A) (A)
                 (A) (A) (A) (A) (A) (A) (A) (A) (A) (A) (A) (A)
                 (A) (A) (A) (A) (A) (A) (A) (A) (A) (A) (A) (A)
                 (A) (A) (A) (A) (A) (A) (A) (A) (A) (A) (A) (A)
                 (A) (A) (A) (A) (A) (A) (A) (A) (A) (A) (A) (A)
                 (A) (A) (A) (A) (A) (A) (A) (A) (A) (A) (A) (A)
                 (A) (A) (A) (A) (A) (A) (A) (A) (A) (A) (A) (A)
                 (A) (A) (A) (A) (A) (A) (A) (A) (A) (A) (A) (A)
                 (A) (A) (A) (A) (A) (A) (A) (A) (A) (A) (A) (A)
                 (A) (A) (A) (A) (A) (A) (A) (A) (A) (A) (A) (A)
                 (A) (A) (A) (A) (A) (A) (A) (A) (A) (A) (A) (A)
                 (A) (A) (A) (A) (A) (A) (A) (A) (A) (A) (A) (A)
                 (A) (A) (A) (A) (A) (A) (A) (A) (A) (A) (A) (A)
                 (A) (A) (A) (A) (A) (A) (A) (A) (A) (A) (A) (A)
                 (A) (A) (A) (A) (A) (A) (A) (A) (A) (A) (A) (A)
                 (A) (A) (A) (A) (A) (A) (A) (A) (A) (A) (A) (A)
                 (A) (A) (A) (A) (A) (A) (A) (A) (A) (A) (A) (A)
                 (A) (A) (A) (A) (A) (A) (A) (A) (A) (A) (A) (A)
                 (A) (A) (A) (A) (A) (A) (A) (A) (A) (A) (A) (A)
                 (A) (A) (A) (A) (A) (A) (A) (A) (A) (A) (A) (A)
                 (A) (A) (A) (A) (A) (A) (A) (A) (A) (A) (A) (A)
                 (A) (A) (A) (A) (A) (A) (A) (A) (A) (A) (A) (A)
                 (A) (A) (A) (A) (A) (A) (A) (A) (A) (A) (A) (A)
                 (A) (A) (A) (A) (A) (A) (A) (A) (A) (A) (A) (A)
                 (A) (A) (A) (A) (A) (A) (A) (A) (A) (A) (A) (A)
                 (A) (A) (A) (A) (A) (A) (A) (A) (A) (A) (A) (A)
                 (A) (A) (A) (A) (A) (A) (A) (A) (A) (A) (A) (A)
                 (A) (A) (A) (A) (A) (A) (A) (A) (A) (A) (A) (A)
                 (A) (A) (A) (A) (A) (A) (A) (A) (A) (A) (A) (A)
                 (A) (A) (A) (A) (A) (A) (A) (A) (A) (A) (A) (A)
                 (A) (A) (A) (A) (A) (A) (A) (A) (A) (A) (A) (A)
                 (A) (A) (A) (A) (A) (A) (A) (A) (A) (A) (A) (A)
                 (A) (A) (A) (A) (A) (A) (A) (A) (A) (A) (A) (A)
                 (A) (A) (A) (A) (A) (A) (A) (A) (A) (A) (A) (A)
                 (A) (A) (A) (A) (A) (A) (A) (A) (A) (A) (A) (A)
                 (A) (A) (A) (A) (A) (A) (A) (A) (A) (A) (A) (A)
                 (A) (A) (A) (A) (A) (A) (A) (A) (A) (A) (A) (A)
                 (A) (A) (A) (A) (A) (A) (A) (A) (A) (A) (A) (A)
                 (A) (A) (A) (A) (A) (A) (A) (A) (A) (A) (A) (A)
                 (A) (A) (A) (A) (A) (A) (A) (A) (A) (A) (A) (A)
                 (A) (A) (A) (A) (A) (A) (A) (A) (A) (A) (A) (A)
                 (A) (A) (A) (A) (A) (A) (A) (A) (A) (A) (A) (A)
                 (A) (A) (A) (A) (A) (A) (A) (A) (A) (A) (A) (A)
                 (A) (A) (A) (A) (A)
 Beta  Orbitals:
       Occupied  (A) (A) (A) (A) (A) (A) (A) (A) (A) (A) (A) (A)
                 (A) (A) (A) (A) (A) (A) (A) (A) (A) (A) (A) (A)
                 (A) (A) (A) (A) (A) (A) (A) (A) (A) (A) (A) (A)
                 (A) (A) (A) (A) (A) (A) (A) (A) (A) (A) (A) (A)
                 (A) (A) (A) (A) (A) (A) (A) (A) (A) (A) (A) (A)
                 (A) (A) (A) (A) (A) (A) (A) (A) (A) (A) (A) (A)
                 (A) (A) (A) (A) (A) (A) (A) (A) (A) (A) (A) (A)
                 (A) (A) (A) (A) (A) (A) (A) (A) (A) (A) (A) (A)
                 (A) (A) (A) (A) (A) (A) (A) (A) (A) (A) (A) (A)
                 (A) (A) (A) (A) (A) (A) (A) (A) (A) (A) (A) (A)
                 (A) (A) (A) (A) (A) (A) (A) (A) (A) (A) (A) (A)
                 (A) (A) (A) (A) (A) (A) (A) (A) (A) (A) (A) (A)
                 (A) (A) (A) (A) (A) (A) (A) (A) (A) (A) (A) (A)
                 (A) (A) (A) (A) (A) (A) (A) (A) (A) (A) (A) (A)
                 (A) (A) (A) (A) (A) (A) (A) (A) (A) (A) (A) (A)
                 (A) (A) (A) (A) (A) (A) (A) (A) (A) (A) (A) (A)
                 (A) (A) (A) (A) (A) (A) (A) (A) (A) (A)
       Virtual   (A) (A) (A) (A) (A) (A) (A) (A) (A) (A) (A) (A)
                 (A) (A) (A) (A) (A) (A) (A) (A) (A) (A) (A) (A)
                 (A) (A) (A) (A) (A) (A) (A) (A) (A) (A) (A) (A)
                 (A) (A) (A) (A) (A) (A) (A) (A) (A) (A) (A) (A)
                 (A) (A) (A) (A) (A) (A) (A) (A) (A) (A) (A) (A)
                 (A) (A) (A) (A) (A) (A) (A) (A) (A) (A) (A) (A)
                 (A) (A) (A) (A) (A) (A) (A) (A) (A) (A) (A) (A)
                 (A) (A) (A) (A) (A) (A) (A) (A) (A) (A) (A) (A)
                 (A) (A) (A) (A) (A) (A) (A) (A) (A) (A) (A) (A)
                 (A) (A) (A) (A) (A) (A) (A) (A) (A) (A) (A) (A)
                 (A) (A) (A) (A) (A) (A) (A) (A) (A) (A) (A) (A)
                 (A) (A) (A) (A) (A) (A) (A) (A) (A) (A) (A) (A)
                 (A) (A) (A) (A) (A) (A) (A) (A) (A) (A) (A) (A)
                 (A) (A) (A) (A) (A) (A) (A) (A) (A) (A) (A) (A)
                 (A) (A) (A) (A) (A) (A) (A) (A) (A) (A) (A) (A)
                 (A) (A) (A) (A) (A) (A) (A) (A) (A) (A) (A) (A)
                 (A) (A) (A) (A) (A) (A) (A) (A) (A) (A) (A) (A)
                 (A) (A) (A) (A) (A) (A) (A) (A) (A) (A) (A) (A)
                 (A) (A) (A) (A) (A) (A) (A) (A) (A) (A) (A) (A)
                 (A) (A) (A) (A) (A) (A) (A) (A) (A) (A) (A) (A)
                 (A) (A) (A) (A) (A) (A) (A) (A) (A) (A) (A) (A)
                 (A) (A) (A) (A) (A) (A) (A) (A) (A) (A) (A) (A)
                 (A) (A) (A) (A) (A) (A) (A) (A) (A) (A) (A) (A)
                 (A) (A) (A) (A) (A) (A) (A) (A) (A) (A) (A) (A)
                 (A) (A) (A) (A) (A) (A) (A) (A) (A) (A) (A) (A)
                 (A) (A) (A) (A) (A) (A) (A) (A) (A) (A) (A) (A)
                 (A) (A) (A) (A) (A) (A) (A) (A) (A) (A) (A) (A)
                 (A) (A) (A) (A) (A) (A) (A) (A) (A) (A) (A) (A)
                 (A) (A) (A) (A) (A) (A) (A) (A) (A) (A) (A) (A)
                 (A) (A) (A) (A) (A) (A) (A) (A) (A) (A) (A) (A)
                 (A) (A) (A) (A) (A) (A) (A) (A) (A) (A) (A) (A)
                 (A) (A) (A) (A) (A) (A) (A) (A) (A) (A) (A) (A)
                 (A) (A) (A) (A) (A) (A) (A) (A) (A) (A) (A) (A)
                 (A) (A) (A) (A) (A) (A) (A) (A) (A) (A) (A) (A)
                 (A) (A) (A) (A) (A) (A) (A) (A) (A) (A) (A) (A)
                 (A) (A) (A) (A) (A) (A) (A) (A) (A) (A) (A) (A)
                 (A) (A) (A) (A) (A) (A) (A) (A) (A) (A) (A) (A)
                 (A) (A) (A) (A) (A) (A) (A) (A) (A) (A) (A) (A)
                 (A) (A) (A) (A) (A) (A) (A) (A) (A) (A) (A) (A)
                 (A) (A) (A) (A) (A) (A) (A) (A) (A) (A) (A) (A)
                 (A) (A) (A) (A) (A) (A) (A) (A) (A) (A) (A) (A)
                 (A) (A) (A) (A) (A) (A) (A) (A) (A) (A) (A) (A)
                 (A) (A) (A) (A) (A) (A) (A) (A) (A) (A) (A) (A)
                 (A) (A) (A) (A) (A) (A) (A) (A) (A) (A) (A) (A)
                 (A) (A) (A) (A) (A) (A) (A) (A) (A) (A) (A) (A)
                 (A) (A) (A) (A) (A) (A) (A) (A) (A) (A) (A) (A)
                 (A) (A) (A) (A) (A) (A) (A) (A) (A) (A) (A) (A)
                 (A) (A) (A) (A) (A) (A) (A) (A) (A) (A) (A) (A)
                 (A) (A) (A) (A) (A) (A) (A) (A) (A) (A) (A) (A)
                 (A) (A) (A) (A) (A) (A) (A) (A) (A) (A) (A) (A)
                 (A) (A) (A) (A) (A) (A) (A) (A) (A) (A) (A) (A)
                 (A) (A) (A) (A) (A) (A) (A) (A) (A) (A) (A) (A)
                 (A) (A) (A) (A) (A) (A) (A) (A) (A) (A) (A) (A)
                 (A) (A) (A) (A) (A) (A) (A) (A) (A) (A) (A) (A)
                 (A) (A) (A) (A) (A) (A) (A) (A) (A) (A) (A) (A)
                 (A) (A) (A) (A) (A) (A) (A) (A) (A) (A) (A) (A)
                 (A) (A) (A) (A) (A) (A) (A) (A) (A) (A) (A) (A)
                 (A) (A) (A) (A) (A) (A) (A) (A) (A) (A) (A) (A)
                 (A) (A) (A) (A) (A) (A) (A) (A) (A) (A) (A) (A)
                 (A) (A) (A) (A) (A) (A) (A) (A) (A) (A) (A) (A)
                 (A) (A) (A) (A) (A) (A) (A) (A) (A) (A) (A) (A)
                 (A) (A) (A) (A) (A) (A) (A) (A) (A) (A) (A) (A)
                 (A) (A) (A) (A) (A) (A) (A) (A) (A) (A) (A) (A)
                 (A) (A) (A) (A) (A) (A) (A) (A) (A) (A) (A) (A)
                 (A) (A) (A) (A) (A) (A) (A) (A) (A) (A) (A) (A)
                 (A) (A) (A) (A) (A) (A) (A) (A) (A) (A) (A) (A)
                 (A) (A) (A) (A) (A) (A) (A) (A) (A) (A) (A) (A)
                 (A) (A) (A) (A) (A) (A) (A) (A) (A) (A) (A) (A)
                 (A) (A) (A) (A) (A) (A) (A) (A) (A) (A) (A) (A)
                 (A) (A) (A) (A) (A) (A) (A) (A) (A) (A) (A) (A)
                 (A) (A) (A) (A) (A) (A) (A) (A) (A) (A) (A) (A)
                 (A) (A) (A) (A) (A) (A) (A) (A) (A) (A) (A) (A)
                 (A) (A) (A) (A) (A) (A) (A) (A) (A) (A) (A) (A)
                 (A) (A) (A) (A) (A) (A) (A) (A) (A) (A) (A) (A)
                 (A) (A) (A) (A) (A) (A) (A) (A) (A) (A) (A) (A)
                 (A) (A) (A) (A) (A) (A) (A) (A) (A) (A) (A) (A)
                 (A) (A) (A) (A) (A) (A) (A) (A) (A) (A) (A) (A)
                 (A) (A) (A) (A) (A) (A) (A) (A) (A) (A) (A) (A)
                 (A) (A) (A) (A) (A) (A) (A) (A) (A) (A) (A) (A)
                 (A) (A) (A) (A) (A) (A) (A) (A) (A) (A) (A) (A)
                 (A) (A) (A) (A) (A) (A) (A) (A) (A) (A) (A) (A)
                 (A) (A) (A) (A) (A) (A) (A) (A) (A) (A) (A) (A)
                 (A) (A) (A) (A) (A) (A) (A) (A) (A) (A) (A) (A)
                 (A) (A) (A) (A) (A) (A) (A) (A) (A) (A) (A) (A)
                 (A) (A) (A) (A) (A) (A) (A) (A) (A) (A) (A) (A)
                 (A) (A) (A) (A) (A) (A) (A) (A) (A) (A) (A) (A)
                 (A) (A) (A) (A) (A) (A) (A) (A) (A) (A) (A) (A)
                 (A) (A) (A) (A) (A) (A) (A) (A) (A) (A) (A) (A)
                 (A) (A) (A) (A) (A) (A) (A) (A) (A) (A) (A) (A)
                 (A) (A) (A) (A) (A) (A) (A) (A) (A) (A) (A) (A)
                 (A) (A) (A) (A) (A) (A) (A) (A) (A) (A) (A) (A)
                 (A) (A) (A) (A) (A) (A) (A) (A) (A) (A) (A) (A)
                 (A) (A) (A) (A) (A) (A) (A) (A) (A) (A) (A) (A)
                 (A) (A) (A) (A) (A) (A) (A) (A) (A) (A) (A) (A)
                 (A) (A) (A) (A) (A) (A) (A) (A) (A) (A) (A) (A)
                 (A) (A) (A) (A) (A) (A) (A) (A) (A) (A) (A) (A)
                 (A) (A) (A) (A) (A) (A) (A) (A) (A) (A) (A) (A)
                 (A) (A) (A) (A) (A) (A) (A) (A) (A) (A) (A) (A)
                 (A) (A) (A) (A) (A) (A) (A) (A) (A) (A) (A) (A)
                 (A) (A) (A) (A) (A) (A) (A) (A) (A) (A) (A) (A)
                 (A) (A) (A) (A) (A) (A) (A) (A) (A) (A) (A) (A)
                 (A) (A) (A) (A) (A) (A) (A) (A) (A) (A) (A) (A)
                 (A) (A) (A) (A) (A) (A) (A) (A) (A) (A) (A) (A)
                 (A) (A) (A) (A) (A) (A) (A) (A) (A) (A) (A) (A)
                 (A) (A) (A) (A) (A) (A) (A) (A) (A) (A) (A) (A)
                 (A) (A) (A) (A) (A) (A) (A) (A) (A) (A) (A) (A)
                 (A) (A) (A) (A) (A) (A) (A) (A) (A) (A) (A) (A)
                 (A) (A) (A) (A) (A) (A) (A) (A) (A) (A) (A) (A)
                 (A) (A) (A) (A) (A) (A) (A) (A) (A) (A) (A) (A)
                 (A) (A) (A) (A) (A) (A) (A) (A) (A) (A) (A) (A)
                 (A) (A) (A) (A) (A) (A) (A) (A) (A) (A) (A) (A)
                 (A) (A) (A) (A) (A) (A) (A) (A) (A) (A) (A) (A)
                 (A) (A) (A) (A) (A) (A) (A) (A) (A) (A) (A) (A)
                 (A) (A) (A) (A) (A) (A) (A) (A) (A) (A) (A) (A)
                 (A) (A) (A) (A) (A) (A) (A) (A) (A) (A) (A) (A)
                 (A) (A) (A) (A) (A) (A) (A) (A) (A) (A) (A) (A)
                 (A) (A) (A) (A) (A) (A) (A) (A) (A) (A) (A) (A)
                 (A) (A) (A) (A) (A) (A) (A) (A) (A) (A) (A) (A)
                 (A) (A) (A) (A) (A) (A) (A) (A) (A) (A) (A) (A)
                 (A) (A) (A) (A) (A) (A) (A) (A) (A) (A) (A) (A)
                 (A) (A) (A) (A) (A) (A) (A) (A) (A) (A) (A) (A)
                 (A) (A) (A) (A) (A) (A) (A) (A) (A) (A) (A) (A)
                 (A) (A) (A) (A) (A) (A) (A) (A) (A) (A) (A) (A)
                 (A) (A) (A) (A) (A) (A) (A) (A) (A) (A) (A) (A)
                 (A) (A) (A) (A) (A) (A) (A) (A) (A) (A) (A) (A)
                 (A) (A) (A) (A) (A) (A) (A) (A) (A) (A) (A) (A)
                 (A) (A) (A) (A) (A) (A) (A) (A) (A) (A) (A) (A)
                 (A) (A) (A) (A) (A) (A) (A) (A) (A) (A) (A) (A)
                 (A) (A) (A) (A) (A) (A) (A) (A) (A) (A) (A) (A)
                 (A) (A) (A) (A) (A) (A) (A) (A) (A) (A) (A) (A)
                 (A) (A) (A) (A) (A) (A) (A) (A) (A) (A) (A) (A)
                 (A) (A) (A) (A) (A) (A) (A) (A) (A) (A) (A) (A)
                 (A) (A) (A) (A) (A) (A) (A) (A) (A) (A) (A) (A)
                 (A) (A) (A) (A) (A) (A) (A) (A) (A) (A) (A) (A)
                 (A) (A) (A) (A) (A) (A) (A) (A) (A) (A) (A) (A)
                 (A) (A) (A) (A) (A) (A) (A) (A) (A) (A) (A) (A)
                 (A) (A) (A) (A) (A) (A) (A) (A) (A) (A) (A) (A)
                 (A) (A) (A) (A) (A) (A) (A) (A) (A) (A) (A) (A)
                 (A) (A) (A) (A) (A) (A) (A) (A) (A) (A) (A) (A)
                 (A) (A) (A) (A) (A) (A) (A) (A) (A) (A) (A) (A)
                 (A) (A) (A) (A) (A) (A) (A) (A) (A) (A) (A) (A)
                 (A) (A) (A) (A) (A) (A) (A) (A) (A) (A) (A) (A)
                 (A) (A) (A) (A) (A) (A) (A) (A) (A) (A) (A) (A)
                 (A) (A) (A) (A) (A) (A) (A) (A) (A) (A) (A) (A)
                 (A) (A) (A) (A) (A) (A) (A) (A) (A)
 The electronic state is 5-A.
 Alpha  occ. eigenvalues -- -256.40788 -89.02970 -30.21563 -26.04899 -26.02853
 Alpha  occ. eigenvalues --  -26.02819 -19.27742 -19.26156 -19.18036 -19.17416
 Alpha  occ. eigenvalues --  -14.46291 -14.39652 -14.38909 -14.38728 -14.38296
 Alpha  occ. eigenvalues --  -14.37696 -10.35671 -10.34871 -10.29473 -10.27271
 Alpha  occ. eigenvalues --  -10.25492 -10.25247 -10.25128 -10.25110 -10.24905
 Alpha  occ. eigenvalues --  -10.24879 -10.24774 -10.24721 -10.24605 -10.24553
 Alpha  occ. eigenvalues --  -10.24338 -10.24221 -10.23984 -10.23924 -10.23839
 Alpha  occ. eigenvalues --  -10.23594 -10.23477 -10.23369 -10.22983 -10.22895
 Alpha  occ. eigenvalues --  -10.22721 -10.22700 -10.22622 -10.22406 -10.22397
 Alpha  occ. eigenvalues --  -10.22065 -10.22043 -10.21957 -10.21928 -10.21670
 Alpha  occ. eigenvalues --  -10.21505 -10.21419 -10.21058 -10.20838 -10.20687
 Alpha  occ. eigenvalues --  -10.20656 -10.20654  -8.01025  -5.94638  -5.94371
 Alpha  occ. eigenvalues --   -5.93899  -3.60901  -2.40526  -2.34864  -2.34819
 Alpha  occ. eigenvalues --   -1.18080  -1.16810  -1.08132  -1.03218  -1.02274
 Alpha  occ. eigenvalues --   -0.98919  -0.97832  -0.97477  -0.96547  -0.92462
 Alpha  occ. eigenvalues --   -0.85064  -0.84519  -0.84259  -0.83891  -0.83421
 Alpha  occ. eigenvalues --   -0.82852  -0.82319  -0.81492  -0.80955  -0.79566
 Alpha  occ. eigenvalues --   -0.78963  -0.77445  -0.76488  -0.75626  -0.74988
 Alpha  occ. eigenvalues --   -0.74008  -0.73386  -0.72928  -0.72318  -0.71139
 Alpha  occ. eigenvalues --   -0.70472  -0.69936  -0.69571  -0.68351  -0.67432
 Alpha  occ. eigenvalues --   -0.66951  -0.66507  -0.65674  -0.65558  -0.63758
 Alpha  occ. eigenvalues --   -0.63151  -0.62130  -0.61309  -0.59508  -0.58256
 Alpha  occ. eigenvalues --   -0.58045  -0.56454  -0.55523  -0.54952  -0.54864
 Alpha  occ. eigenvalues --   -0.54124  -0.53848  -0.52794  -0.52678  -0.51984
 Alpha  occ. eigenvalues --   -0.51320  -0.50880  -0.49929  -0.49645  -0.49579
 Alpha  occ. eigenvalues --   -0.49274  -0.48963  -0.48740  -0.47834  -0.47773
 Alpha  occ. eigenvalues --   -0.47138  -0.46916  -0.46570  -0.46372  -0.45983
 Alpha  occ. eigenvalues --   -0.45719  -0.45447  -0.45388  -0.45224  -0.45104
 Alpha  occ. eigenvalues --   -0.44785  -0.44768  -0.44447  -0.44111  -0.44045
 Alpha  occ. eigenvalues --   -0.43875  -0.43763  -0.43485  -0.43331  -0.42750
 Alpha  occ. eigenvalues --   -0.42650  -0.42326  -0.42279  -0.41895  -0.41802
 Alpha  occ. eigenvalues --   -0.41446  -0.41035  -0.40929  -0.40540  -0.40374
 Alpha  occ. eigenvalues --   -0.40263  -0.40137  -0.39717  -0.39574  -0.39315
 Alpha  occ. eigenvalues --   -0.39166  -0.38938  -0.38861  -0.38700  -0.38455
 Alpha  occ. eigenvalues --   -0.38323  -0.37881  -0.37639  -0.37365  -0.37271
 Alpha  occ. eigenvalues --   -0.36489  -0.36285  -0.36104  -0.35897  -0.35286
 Alpha  occ. eigenvalues --   -0.35143  -0.34320  -0.34076  -0.33555  -0.33225
 Alpha  occ. eigenvalues --   -0.33087  -0.32639  -0.32433  -0.32396  -0.31569
 Alpha  occ. eigenvalues --   -0.30915  -0.30199  -0.28321  -0.28118  -0.27851
 Alpha  occ. eigenvalues --   -0.27731  -0.27142  -0.25811  -0.24566  -0.24253
 Alpha  occ. eigenvalues --   -0.22414  -0.21563  -0.21259  -0.20092  -0.19650
 Alpha  occ. eigenvalues --   -0.12159
 Alpha virt. eigenvalues --   -0.08404  -0.06753  -0.04989  -0.02579  -0.00608
 Alpha virt. eigenvalues --   -0.00323   0.00529   0.00975   0.01082   0.01400
 Alpha virt. eigenvalues --    0.01594   0.02940   0.03303   0.03498   0.03987
 Alpha virt. eigenvalues --    0.04229   0.04728   0.05053   0.05431   0.05717
 Alpha virt. eigenvalues --    0.05923   0.06158   0.06329   0.06863   0.07322
 Alpha virt. eigenvalues --    0.07430   0.07995   0.08291   0.08523   0.08864
 Alpha virt. eigenvalues --    0.09074   0.09366   0.09480   0.09937   0.10196
 Alpha virt. eigenvalues --    0.10263   0.10838   0.11086   0.11364   0.11595
 Alpha virt. eigenvalues --    0.11732   0.11877   0.11932   0.12059   0.12248
 Alpha virt. eigenvalues --    0.12735   0.12813   0.12958   0.13160   0.13269
 Alpha virt. eigenvalues --    0.13483   0.13612   0.13747   0.14054   0.14106
 Alpha virt. eigenvalues --    0.14413   0.14601   0.15020   0.15156   0.15344
 Alpha virt. eigenvalues --    0.15524   0.15634   0.15983   0.16196   0.16358
 Alpha virt. eigenvalues --    0.16516   0.16645   0.16701   0.17019   0.17182
 Alpha virt. eigenvalues --    0.17386   0.17464   0.17700   0.17883   0.18204
 Alpha virt. eigenvalues --    0.18564   0.18842   0.18944   0.19298   0.19402
 Alpha virt. eigenvalues --    0.19589   0.19869   0.20120   0.20201   0.20428
 Alpha virt. eigenvalues --    0.20780   0.20966   0.21119   0.21378   0.21482
 Alpha virt. eigenvalues --    0.21620   0.21725   0.22200   0.22328   0.22462
 Alpha virt. eigenvalues --    0.22723   0.22966   0.23370   0.23410   0.23591
 Alpha virt. eigenvalues --    0.23712   0.23997   0.24406   0.24603   0.24803
 Alpha virt. eigenvalues --    0.24946   0.24977   0.25296   0.25571   0.25650
 Alpha virt. eigenvalues --    0.25827   0.25958   0.26155   0.26329   0.26605
 Alpha virt. eigenvalues --    0.26777   0.26885   0.26987   0.27086   0.27242
 Alpha virt. eigenvalues --    0.27455   0.28026   0.28390   0.28559   0.28716
 Alpha virt. eigenvalues --    0.28817   0.29215   0.29333   0.29792   0.29854
 Alpha virt. eigenvalues --    0.30158   0.30274   0.30504   0.30615   0.30767
 Alpha virt. eigenvalues --    0.31043   0.31399   0.31627   0.31697   0.32105
 Alpha virt. eigenvalues --    0.32150   0.32331   0.32553   0.32889   0.32969
 Alpha virt. eigenvalues --    0.33332   0.33422   0.33595   0.34011   0.34413
 Alpha virt. eigenvalues --    0.34593   0.34674   0.34972   0.35260   0.35499
 Alpha virt. eigenvalues --    0.35753   0.35816   0.36172   0.36370   0.36454
 Alpha virt. eigenvalues --    0.36689   0.36982   0.37199   0.37397   0.37604
 Alpha virt. eigenvalues --    0.37833   0.38054   0.38390   0.38513   0.38785
 Alpha virt. eigenvalues --    0.39003   0.39192   0.39382   0.39530   0.39562
 Alpha virt. eigenvalues --    0.39579   0.39711   0.40051   0.40318   0.40563
 Alpha virt. eigenvalues --    0.40780   0.41031   0.41151   0.41164   0.41407
 Alpha virt. eigenvalues --    0.41692   0.41755   0.42020   0.42178   0.42585
 Alpha virt. eigenvalues --    0.42649   0.43061   0.43084   0.43262   0.43394
 Alpha virt. eigenvalues --    0.43691   0.43804   0.43912   0.44147   0.44178
 Alpha virt. eigenvalues --    0.44353   0.44488   0.44779   0.45121   0.45231
 Alpha virt. eigenvalues --    0.45351   0.45502   0.45785   0.45849   0.45909
 Alpha virt. eigenvalues --    0.46004   0.46245   0.46316   0.46535   0.46695
 Alpha virt. eigenvalues --    0.46739   0.46993   0.47057   0.47405   0.47479
 Alpha virt. eigenvalues --    0.47888   0.48013   0.48175   0.48244   0.48448
 Alpha virt. eigenvalues --    0.48557   0.48680   0.49186   0.49365   0.49394
 Alpha virt. eigenvalues --    0.49476   0.49623   0.49785   0.50058   0.50141
 Alpha virt. eigenvalues --    0.50472   0.50641   0.50822   0.51003   0.51081
 Alpha virt. eigenvalues --    0.51336   0.51450   0.51496   0.51549   0.51974
 Alpha virt. eigenvalues --    0.52101   0.52416   0.52593   0.52752   0.52875
 Alpha virt. eigenvalues --    0.52928   0.53004   0.53429   0.53653   0.53806
 Alpha virt. eigenvalues --    0.54310   0.54374   0.54647   0.54698   0.54991
 Alpha virt. eigenvalues --    0.55140   0.55291   0.55567   0.55631   0.55881
 Alpha virt. eigenvalues --    0.55924   0.56152   0.56293   0.56449   0.56966
 Alpha virt. eigenvalues --    0.57057   0.57357   0.57615   0.57785   0.57849
 Alpha virt. eigenvalues --    0.58060   0.58239   0.58409   0.58892   0.59292
 Alpha virt. eigenvalues --    0.59660   0.59743   0.59880   0.60114   0.60265
 Alpha virt. eigenvalues --    0.60718   0.60902   0.61200   0.61366   0.61717
 Alpha virt. eigenvalues --    0.62226   0.62363   0.62576   0.62827   0.63023
 Alpha virt. eigenvalues --    0.63150   0.63369   0.63565   0.64088   0.64404
 Alpha virt. eigenvalues --    0.64464   0.64536   0.64878   0.65206   0.65286
 Alpha virt. eigenvalues --    0.65792   0.65814   0.65969   0.66348   0.66516
 Alpha virt. eigenvalues --    0.66660   0.67107   0.67378   0.67706   0.67893
 Alpha virt. eigenvalues --    0.68259   0.68409   0.68668   0.68806   0.69008
 Alpha virt. eigenvalues --    0.69385   0.69652   0.70073   0.70254   0.70528
 Alpha virt. eigenvalues --    0.70701   0.71143   0.71389   0.71576   0.71764
 Alpha virt. eigenvalues --    0.72264   0.72395   0.72467   0.72810   0.73125
 Alpha virt. eigenvalues --    0.73199   0.73694   0.73787   0.73937   0.74192
 Alpha virt. eigenvalues --    0.74466   0.74889   0.74920   0.75593   0.75638
 Alpha virt. eigenvalues --    0.76130   0.76223   0.76513   0.76685   0.77029
 Alpha virt. eigenvalues --    0.77326   0.77950   0.78070   0.78344   0.78502
 Alpha virt. eigenvalues --    0.78757   0.78908   0.79071   0.79415   0.79643
 Alpha virt. eigenvalues --    0.80002   0.80253   0.80533   0.80915   0.81002
 Alpha virt. eigenvalues --    0.81557   0.81638   0.82050   0.82251   0.82559
 Alpha virt. eigenvalues --    0.83040   0.83145   0.83536   0.83606   0.83984
 Alpha virt. eigenvalues --    0.84246   0.84576   0.84772   0.85263   0.85571
 Alpha virt. eigenvalues --    0.85912   0.86195   0.86528   0.86859   0.87246
 Alpha virt. eigenvalues --    0.87522   0.87636   0.87941   0.88112   0.88512
 Alpha virt. eigenvalues --    0.88899   0.89244   0.89594   0.89781   0.90270
 Alpha virt. eigenvalues --    0.90414   0.90687   0.90849   0.91268   0.91539
 Alpha virt. eigenvalues --    0.91665   0.92036   0.92573   0.92636   0.92776
 Alpha virt. eigenvalues --    0.93387   0.93564   0.93935   0.94202   0.94387
 Alpha virt. eigenvalues --    0.94698   0.94855   0.95090   0.95398   0.95771
 Alpha virt. eigenvalues --    0.95799   0.95987   0.96387   0.96666   0.97017
 Alpha virt. eigenvalues --    0.97139   0.97418   0.97515   0.97765   0.97969
 Alpha virt. eigenvalues --    0.98339   0.98631   0.99055   0.99585   0.99764
 Alpha virt. eigenvalues --    0.99815   1.00005   1.00122   1.00290   1.00693
 Alpha virt. eigenvalues --    1.00931   1.01199   1.01635   1.01942   1.02276
 Alpha virt. eigenvalues --    1.02534   1.02628   1.02898   1.03299   1.03469
 Alpha virt. eigenvalues --    1.03711   1.03976   1.04175   1.04313   1.04817
 Alpha virt. eigenvalues --    1.05123   1.05274   1.05481   1.05931   1.06122
 Alpha virt. eigenvalues --    1.06544   1.06653   1.06934   1.07292   1.07441
 Alpha virt. eigenvalues --    1.07849   1.08105   1.08805   1.09169   1.09243
 Alpha virt. eigenvalues --    1.09550   1.09759   1.10218   1.10375   1.10957
 Alpha virt. eigenvalues --    1.11160   1.11208   1.11661   1.11893   1.12012
 Alpha virt. eigenvalues --    1.12529   1.12837   1.13117   1.13523   1.13717
 Alpha virt. eigenvalues --    1.14577   1.14625   1.15246   1.15441   1.15934
 Alpha virt. eigenvalues --    1.16038   1.16673   1.16763   1.17434   1.17670
 Alpha virt. eigenvalues --    1.17768   1.18363   1.18456   1.18787   1.19096
 Alpha virt. eigenvalues --    1.19437   1.20005   1.20603   1.20711   1.20967
 Alpha virt. eigenvalues --    1.21133   1.21486   1.22003   1.22281   1.22583
 Alpha virt. eigenvalues --    1.22910   1.23061   1.23959   1.24216   1.24599
 Alpha virt. eigenvalues --    1.24727   1.25314   1.25354   1.25618   1.26125
 Alpha virt. eigenvalues --    1.26856   1.27276   1.27574   1.27984   1.28396
 Alpha virt. eigenvalues --    1.28592   1.29020   1.29293   1.29594   1.30142
 Alpha virt. eigenvalues --    1.30669   1.30679   1.31322   1.31484   1.31717
 Alpha virt. eigenvalues --    1.31939   1.32181   1.32541   1.32601   1.32798
 Alpha virt. eigenvalues --    1.33581   1.33871   1.34448   1.34718   1.34963
 Alpha virt. eigenvalues --    1.35305   1.35475   1.36008   1.36447   1.36510
 Alpha virt. eigenvalues --    1.37020   1.37978   1.38299   1.38439   1.39032
 Alpha virt. eigenvalues --    1.39405   1.39678   1.40238   1.40575   1.40660
 Alpha virt. eigenvalues --    1.41327   1.41771   1.42186   1.42625   1.42896
 Alpha virt. eigenvalues --    1.43294   1.43879   1.43997   1.44573   1.44868
 Alpha virt. eigenvalues --    1.45048   1.45395   1.45718   1.46241   1.46386
 Alpha virt. eigenvalues --    1.46491   1.46840   1.47123   1.47532   1.47809
 Alpha virt. eigenvalues --    1.48120   1.48704   1.48934   1.49014   1.49528
 Alpha virt. eigenvalues --    1.49833   1.49994   1.50628   1.51087   1.51191
 Alpha virt. eigenvalues --    1.51222   1.52026   1.52284   1.52349   1.52569
 Alpha virt. eigenvalues --    1.52937   1.53022   1.53140   1.53446   1.53571
 Alpha virt. eigenvalues --    1.53988   1.54401   1.54798   1.54849   1.55057
 Alpha virt. eigenvalues --    1.55406   1.55747   1.56023   1.56178   1.56448
 Alpha virt. eigenvalues --    1.56850   1.57086   1.57361   1.57528   1.58083
 Alpha virt. eigenvalues --    1.58238   1.58330   1.58950   1.59057   1.59251
 Alpha virt. eigenvalues --    1.59454   1.59668   1.59812   1.60159   1.60427
 Alpha virt. eigenvalues --    1.60460   1.60934   1.60980   1.61302   1.61393
 Alpha virt. eigenvalues --    1.61616   1.61851   1.61982   1.62284   1.62517
 Alpha virt. eigenvalues --    1.62744   1.63177   1.63381   1.63555   1.64025
 Alpha virt. eigenvalues --    1.64101   1.64538   1.64610   1.64888   1.64959
 Alpha virt. eigenvalues --    1.65345   1.65651   1.65912   1.66126   1.66302
 Alpha virt. eigenvalues --    1.66583   1.66768   1.67034   1.67363   1.67753
 Alpha virt. eigenvalues --    1.68047   1.68349   1.68429   1.68623   1.68745
 Alpha virt. eigenvalues --    1.69239   1.69520   1.69717   1.69971   1.70369
 Alpha virt. eigenvalues --    1.70529   1.70898   1.71252   1.71605   1.72054
 Alpha virt. eigenvalues --    1.72089   1.72345   1.72672   1.72911   1.72951
 Alpha virt. eigenvalues --    1.73288   1.73445   1.73721   1.74049   1.74407
 Alpha virt. eigenvalues --    1.74719   1.74857   1.75220   1.76053   1.76318
 Alpha virt. eigenvalues --    1.76465   1.76766   1.77225   1.77349   1.77458
 Alpha virt. eigenvalues --    1.77523   1.78121   1.78758   1.79236   1.80016
 Alpha virt. eigenvalues --    1.80415   1.81267   1.81578   1.81754   1.81954
 Alpha virt. eigenvalues --    1.82741   1.83075   1.83378   1.83473   1.83686
 Alpha virt. eigenvalues --    1.84098   1.84389   1.84861   1.85093   1.85423
 Alpha virt. eigenvalues --    1.85742   1.86305   1.86472   1.86796   1.87019
 Alpha virt. eigenvalues --    1.87608   1.87885   1.87902   1.88315   1.88641
 Alpha virt. eigenvalues --    1.89059   1.89385   1.89668   1.89900   1.90427
 Alpha virt. eigenvalues --    1.90927   1.91166   1.91342   1.91461   1.91556
 Alpha virt. eigenvalues --    1.92078   1.92392   1.92688   1.92920   1.93582
 Alpha virt. eigenvalues --    1.93911   1.94089   1.94721   1.94919   1.95082
 Alpha virt. eigenvalues --    1.95497   1.95774   1.96127   1.96508   1.96943
 Alpha virt. eigenvalues --    1.97420   1.97657   1.97727   1.97977   1.98681
 Alpha virt. eigenvalues --    1.98951   1.99278   1.99699   1.99808   1.99919
 Alpha virt. eigenvalues --    2.00082   2.00635   2.01004   2.01127   2.01600
 Alpha virt. eigenvalues --    2.02177   2.02484   2.03416   2.03537   2.03722
 Alpha virt. eigenvalues --    2.03913   2.04320   2.04821   2.05159   2.05749
 Alpha virt. eigenvalues --    2.06306   2.06985   2.07089   2.07517   2.07918
 Alpha virt. eigenvalues --    2.08515   2.08764   2.09296   2.09630   2.09986
 Alpha virt. eigenvalues --    2.10484   2.10992   2.11327   2.11499   2.12231
 Alpha virt. eigenvalues --    2.12480   2.12538   2.12892   2.13371   2.13407
 Alpha virt. eigenvalues --    2.13502   2.14074   2.14374   2.14409   2.14650
 Alpha virt. eigenvalues --    2.15017   2.15719   2.15789   2.16051   2.16331
 Alpha virt. eigenvalues --    2.16947   2.17273   2.17342   2.17435   2.17643
 Alpha virt. eigenvalues --    2.18119   2.18271   2.18732   2.19113   2.19380
 Alpha virt. eigenvalues --    2.19718   2.19913   2.20324   2.20738   2.20879
 Alpha virt. eigenvalues --    2.21409   2.21732   2.22197   2.22565   2.22857
 Alpha virt. eigenvalues --    2.22971   2.23106   2.23831   2.24304   2.24578
 Alpha virt. eigenvalues --    2.24967   2.25714   2.26027   2.26174   2.26535
 Alpha virt. eigenvalues --    2.27309   2.27714   2.27965   2.28183   2.28574
 Alpha virt. eigenvalues --    2.28831   2.28990   2.29257   2.29497   2.29893
 Alpha virt. eigenvalues --    2.30078   2.30679   2.30929   2.31666   2.31847
 Alpha virt. eigenvalues --    2.32133   2.32651   2.32838   2.33634   2.33967
 Alpha virt. eigenvalues --    2.34167   2.34482   2.35171   2.35227   2.35754
 Alpha virt. eigenvalues --    2.35969   2.36047   2.36465   2.37179   2.37300
 Alpha virt. eigenvalues --    2.37795   2.38073   2.38276   2.38773   2.39164
 Alpha virt. eigenvalues --    2.39326   2.39856   2.40313   2.40639   2.40939
 Alpha virt. eigenvalues --    2.41177   2.41423   2.42111   2.42381   2.42586
 Alpha virt. eigenvalues --    2.43153   2.43329   2.43885   2.44096   2.44297
 Alpha virt. eigenvalues --    2.44821   2.44994   2.45044   2.45499   2.46034
 Alpha virt. eigenvalues --    2.46649   2.46932   2.47135   2.47299   2.47886
 Alpha virt. eigenvalues --    2.48188   2.48515   2.49053   2.49519   2.49877
 Alpha virt. eigenvalues --    2.50603   2.50772   2.50911   2.51153   2.51744
 Alpha virt. eigenvalues --    2.51897   2.52418   2.52593   2.52817   2.53602
 Alpha virt. eigenvalues --    2.53701   2.53976   2.54516   2.54804   2.55278
 Alpha virt. eigenvalues --    2.55405   2.55772   2.56104   2.56415   2.56670
 Alpha virt. eigenvalues --    2.57279   2.57325   2.57533   2.57824   2.58402
 Alpha virt. eigenvalues --    2.58475   2.58739   2.59034   2.59327   2.59439
 Alpha virt. eigenvalues --    2.59642   2.59905   2.60636   2.60772   2.60938
 Alpha virt. eigenvalues --    2.61298   2.61785   2.62064   2.62107   2.62449
 Alpha virt. eigenvalues --    2.62695   2.62900   2.63410   2.63779   2.63992
 Alpha virt. eigenvalues --    2.64113   2.64667   2.64686   2.65249   2.65543
 Alpha virt. eigenvalues --    2.66070   2.66413   2.66471   2.66786   2.67147
 Alpha virt. eigenvalues --    2.67666   2.67808   2.68166   2.68461   2.68587
 Alpha virt. eigenvalues --    2.69079   2.69253   2.69453   2.69599   2.69984
 Alpha virt. eigenvalues --    2.70206   2.70529   2.70787   2.71210   2.71712
 Alpha virt. eigenvalues --    2.71878   2.72009   2.72217   2.72589   2.73050
 Alpha virt. eigenvalues --    2.73196   2.73448   2.73630   2.73933   2.74262
 Alpha virt. eigenvalues --    2.74646   2.74920   2.75123   2.75391   2.75643
 Alpha virt. eigenvalues --    2.76046   2.76291   2.76574   2.77075   2.77370
 Alpha virt. eigenvalues --    2.77797   2.77852   2.78143   2.78717   2.78938
 Alpha virt. eigenvalues --    2.79399   2.80327   2.80559   2.80635   2.81103
 Alpha virt. eigenvalues --    2.81204   2.81859   2.81959   2.82330   2.82584
 Alpha virt. eigenvalues --    2.82883   2.83249   2.83630   2.83821   2.84311
 Alpha virt. eigenvalues --    2.84362   2.84906   2.85426   2.85625   2.85896
 Alpha virt. eigenvalues --    2.86197   2.86507   2.86660   2.87424   2.87470
 Alpha virt. eigenvalues --    2.87866   2.88082   2.88562   2.88728   2.89076
 Alpha virt. eigenvalues --    2.89307   2.89788   2.90144   2.90407   2.91135
 Alpha virt. eigenvalues --    2.91229   2.91455   2.91784   2.92181   2.92312
 Alpha virt. eigenvalues --    2.92945   2.93106   2.93394   2.93681   2.94156
 Alpha virt. eigenvalues --    2.94316   2.94818   2.95114   2.95421   2.95703
 Alpha virt. eigenvalues --    2.96098   2.96335   2.96443   2.96722   2.97526
 Alpha virt. eigenvalues --    2.97691   2.97837   2.98014   2.98578   2.98951
 Alpha virt. eigenvalues --    2.99343   2.99702   2.99964   3.00380   3.00469
 Alpha virt. eigenvalues --    3.00785   3.01262   3.01717   3.02044   3.02305
 Alpha virt. eigenvalues --    3.02789   3.03050   3.03232   3.03477   3.04034
 Alpha virt. eigenvalues --    3.04325   3.04870   3.05040   3.05230   3.05532
 Alpha virt. eigenvalues --    3.05974   3.06041   3.06347   3.06630   3.07039
 Alpha virt. eigenvalues --    3.07097   3.07599   3.07946   3.08165   3.08333
 Alpha virt. eigenvalues --    3.08569   3.08676   3.09259   3.09625   3.10005
 Alpha virt. eigenvalues --    3.10078   3.10494   3.10675   3.10788   3.11181
 Alpha virt. eigenvalues --    3.11313   3.11537   3.11853   3.11918   3.11995
 Alpha virt. eigenvalues --    3.12523   3.12655   3.12756   3.13137   3.13654
 Alpha virt. eigenvalues --    3.13904   3.14370   3.14636   3.14814   3.15049
 Alpha virt. eigenvalues --    3.15392   3.15678   3.15812   3.16176   3.16343
 Alpha virt. eigenvalues --    3.16625   3.16662   3.17164   3.17219   3.17575
 Alpha virt. eigenvalues --    3.17757   3.18146   3.18189   3.18401   3.18842
 Alpha virt. eigenvalues --    3.18991   3.19357   3.19576   3.20039   3.20218
 Alpha virt. eigenvalues --    3.20483   3.20556   3.20791   3.21011   3.21595
 Alpha virt. eigenvalues --    3.21713   3.21994   3.22409   3.22632   3.22986
 Alpha virt. eigenvalues --    3.23274   3.23698   3.23871   3.24331   3.24378
 Alpha virt. eigenvalues --    3.24509   3.24928   3.25141   3.25481   3.25661
 Alpha virt. eigenvalues --    3.26130   3.26221   3.26319   3.26824   3.26921
 Alpha virt. eigenvalues --    3.27110   3.27454   3.27569   3.27662   3.28012
 Alpha virt. eigenvalues --    3.28090   3.28441   3.28824   3.29052   3.29338
 Alpha virt. eigenvalues --    3.29484   3.29782   3.29904   3.30236   3.30408
 Alpha virt. eigenvalues --    3.30646   3.30705   3.30983   3.31339   3.31602
 Alpha virt. eigenvalues --    3.31737   3.31896   3.32410   3.32491   3.33002
 Alpha virt. eigenvalues --    3.33076   3.33439   3.33668   3.33945   3.34364
 Alpha virt. eigenvalues --    3.34433   3.34773   3.35008   3.35190   3.35559
 Alpha virt. eigenvalues --    3.35872   3.36169   3.36434   3.36621   3.36862
 Alpha virt. eigenvalues --    3.37060   3.37109   3.37542   3.37980   3.38028
 Alpha virt. eigenvalues --    3.38299   3.38451   3.38630   3.38817   3.38976
 Alpha virt. eigenvalues --    3.39438   3.39523   3.39675   3.39729   3.40273
 Alpha virt. eigenvalues --    3.40629   3.40881   3.41267   3.42021   3.42041
 Alpha virt. eigenvalues --    3.42185   3.42328   3.42729   3.43074   3.43085
 Alpha virt. eigenvalues --    3.43494   3.43799   3.43870   3.44297   3.44636
 Alpha virt. eigenvalues --    3.44817   3.45057   3.45384   3.45532   3.45844
 Alpha virt. eigenvalues --    3.45949   3.46452   3.46626   3.46840   3.47138
 Alpha virt. eigenvalues --    3.47351   3.47653   3.48064   3.48344   3.48630
 Alpha virt. eigenvalues --    3.49092   3.49199   3.49502   3.50018   3.50167
 Alpha virt. eigenvalues --    3.50333   3.50576   3.51009   3.51272   3.51667
 Alpha virt. eigenvalues --    3.51876   3.52065   3.52706   3.52927   3.53220
 Alpha virt. eigenvalues --    3.53510   3.53716   3.54191   3.54511   3.54577
 Alpha virt. eigenvalues --    3.55271   3.55488   3.55658   3.56221   3.56360
 Alpha virt. eigenvalues --    3.56939   3.57001   3.57384   3.57813   3.58377
 Alpha virt. eigenvalues --    3.58724   3.58839   3.59419   3.59838   3.59988
 Alpha virt. eigenvalues --    3.60550   3.61107   3.61218   3.61541   3.61792
 Alpha virt. eigenvalues --    3.62064   3.62818   3.63027   3.63168   3.63617
 Alpha virt. eigenvalues --    3.64011   3.64242   3.64587   3.64867   3.65463
 Alpha virt. eigenvalues --    3.65908   3.66150   3.66295   3.66539   3.66597
 Alpha virt. eigenvalues --    3.67286   3.67487   3.67556   3.68114   3.68536
 Alpha virt. eigenvalues --    3.69424   3.69700   3.69930   3.70040   3.70569
 Alpha virt. eigenvalues --    3.70736   3.70979   3.71454   3.71838   3.72128
 Alpha virt. eigenvalues --    3.72740   3.73018   3.73537   3.73861   3.74230
 Alpha virt. eigenvalues --    3.74333   3.74682   3.74884   3.75621   3.76274
 Alpha virt. eigenvalues --    3.76668   3.77137   3.77208   3.77510   3.77934
 Alpha virt. eigenvalues --    3.78074   3.78502   3.79069   3.79766   3.80179
 Alpha virt. eigenvalues --    3.80239   3.80771   3.81102   3.82156   3.82385
 Alpha virt. eigenvalues --    3.82577   3.82884   3.83242   3.83483   3.84175
 Alpha virt. eigenvalues --    3.84738   3.85002   3.85511   3.86094   3.86283
 Alpha virt. eigenvalues --    3.86385   3.86867   3.87441   3.88100   3.88779
 Alpha virt. eigenvalues --    3.88844   3.88992   3.89276   3.89636   3.89850
 Alpha virt. eigenvalues --    3.90666   3.91490   3.91794   3.92600   3.92890
 Alpha virt. eigenvalues --    3.93505   3.93850   3.94353   3.94705   3.95038
 Alpha virt. eigenvalues --    3.95161   3.96060   3.96449   3.96526   3.97139
 Alpha virt. eigenvalues --    3.97697   3.98598   3.98905   3.99107   3.99571
 Alpha virt. eigenvalues --    4.00335   4.00877   4.01315   4.01421   4.02348
 Alpha virt. eigenvalues --    4.03185   4.03491   4.03786   4.04058   4.04808
 Alpha virt. eigenvalues --    4.05229   4.05370   4.05881   4.06490   4.07601
 Alpha virt. eigenvalues --    4.08198   4.08527   4.09338   4.09418   4.10118
 Alpha virt. eigenvalues --    4.10702   4.10834   4.12006   4.12050   4.13402
 Alpha virt. eigenvalues --    4.13653   4.14831   4.14877   4.15635   4.15963
 Alpha virt. eigenvalues --    4.16471   4.16857   4.17575   4.18157   4.18426
 Alpha virt. eigenvalues --    4.19056   4.19363   4.20179   4.20491   4.20570
 Alpha virt. eigenvalues --    4.20967   4.21483   4.22159   4.22570   4.23157
 Alpha virt. eigenvalues --    4.24011   4.24188   4.24584   4.24945   4.25613
 Alpha virt. eigenvalues --    4.25949   4.26456   4.26900   4.27682   4.27944
 Alpha virt. eigenvalues --    4.28343   4.28876   4.29293   4.30559   4.30815
 Alpha virt. eigenvalues --    4.30966   4.31152   4.31661   4.32464   4.32506
 Alpha virt. eigenvalues --    4.33472   4.33550   4.33943   4.35132   4.35429
 Alpha virt. eigenvalues --    4.35889   4.36583   4.36860   4.37201   4.38005
 Alpha virt. eigenvalues --    4.38257   4.39128   4.39510   4.39551   4.40183
 Alpha virt. eigenvalues --    4.40298   4.40701   4.41392   4.41531   4.41880
 Alpha virt. eigenvalues --    4.41961   4.42517   4.43272   4.43867   4.43973
 Alpha virt. eigenvalues --    4.44094   4.44850   4.45456   4.45687   4.46338
 Alpha virt. eigenvalues --    4.47083   4.47635   4.48149   4.48778   4.49548
 Alpha virt. eigenvalues --    4.50636   4.51053   4.53506   4.53938   4.54161
 Alpha virt. eigenvalues --    4.54423   4.54630   4.54987   4.55479   4.56639
 Alpha virt. eigenvalues --    4.57085   4.57182   4.57872   4.58370   4.59232
 Alpha virt. eigenvalues --    4.59662   4.61619   4.61707   4.62748   4.63237
 Alpha virt. eigenvalues --    4.64107   4.64786   4.66063   4.66176   4.66567
 Alpha virt. eigenvalues --    4.66991   4.67527   4.68680   4.68928   4.69051
 Alpha virt. eigenvalues --    4.69596   4.69875   4.70018   4.70648   4.71133
 Alpha virt. eigenvalues --    4.71613   4.72057   4.72629   4.73336   4.73919
 Alpha virt. eigenvalues --    4.74567   4.75277   4.76006   4.76630   4.77463
 Alpha virt. eigenvalues --    4.78264   4.79263   4.79659   4.80346   4.81466
 Alpha virt. eigenvalues --    4.82556   4.82729   4.83493   4.83689   4.85225
 Alpha virt. eigenvalues --    4.85328   4.87270   4.87761   4.88423   4.89084
 Alpha virt. eigenvalues --    4.89775   4.90054   4.91253   4.91515   4.92112
 Alpha virt. eigenvalues --    4.92644   4.93373   4.93874   4.94501   4.95548
 Alpha virt. eigenvalues --    4.96700   4.96924   4.97951   4.98090   4.99013
 Alpha virt. eigenvalues --    5.00080   5.00834   5.01403   5.02268   5.02961
 Alpha virt. eigenvalues --    5.03203   5.04262   5.05343   5.05600   5.05966
 Alpha virt. eigenvalues --    5.07628   5.09786   5.10264   5.11458   5.12614
 Alpha virt. eigenvalues --    5.12929   5.14006   5.16508   5.17144   5.17604
 Alpha virt. eigenvalues --    5.18471   5.19519   5.20087   5.20496   5.21012
 Alpha virt. eigenvalues --    5.21492   5.21861   5.22028   5.22497   5.22648
 Alpha virt. eigenvalues --    5.23486   5.24457   5.25185   5.26157   5.26665
 Alpha virt. eigenvalues --    5.27387   5.27980   5.28373   5.29555   5.31089
 Alpha virt. eigenvalues --    5.32629   5.33108   5.34604   5.35957   5.36559
 Alpha virt. eigenvalues --    5.37546   5.38206   5.39638   5.40177   5.40975
 Alpha virt. eigenvalues --    5.41349   5.43024   5.43974   5.45170   5.45513
 Alpha virt. eigenvalues --    5.47075   5.48540   5.48992   5.49500   5.49991
 Alpha virt. eigenvalues --    5.51284   5.51801   5.53353   5.54929   5.56048
 Alpha virt. eigenvalues --    5.57422   5.57724   5.57990   5.58437   5.60001
 Alpha virt. eigenvalues --    5.60633   5.63222   5.63955   5.65118   5.65377
 Alpha virt. eigenvalues --    5.66669   5.66861   5.68022   5.72280   5.74911
 Alpha virt. eigenvalues --    5.75773   5.77500   5.81142   5.83677   5.84545
 Alpha virt. eigenvalues --    5.85861   5.87233   5.92407   5.93054   5.94368
 Alpha virt. eigenvalues --    5.94930   5.96872   5.97841   5.98020   5.99635
 Alpha virt. eigenvalues --    6.00720   6.02362   6.02733   6.03803   6.06623
 Alpha virt. eigenvalues --    6.10572   6.13325   6.14312   6.15380   6.15690
 Alpha virt. eigenvalues --    6.17321   6.18003   6.19604   6.23873   6.28211
 Alpha virt. eigenvalues --    6.29758   6.30237   6.31106   6.34454   6.38304
 Alpha virt. eigenvalues --    6.38532   6.45109   6.46296   6.47296   6.49295
 Alpha virt. eigenvalues --    6.53079   6.54141   6.66411   6.71876   6.75991
 Alpha virt. eigenvalues --    6.77928   6.85389   6.85843   6.92363   6.95209
 Alpha virt. eigenvalues --    6.95611   7.02981   7.12394   7.13513   7.17800
 Alpha virt. eigenvalues --    7.18444   7.26687   7.27474   9.29809   9.52273
 Alpha virt. eigenvalues --    9.63527  20.21017  22.20116  22.23300  22.47982
 Alpha virt. eigenvalues --   22.54012  22.54171  22.54991  22.55177  22.55906
 Alpha virt. eigenvalues --   22.56994  22.58663  22.62243  22.68269  22.69294
 Alpha virt. eigenvalues --   22.71176  22.73011  22.73568  22.82099  22.92608
 Alpha virt. eigenvalues --   22.94057  22.95479  22.96997  22.98463  23.06303
 Alpha virt. eigenvalues --   23.07867  23.12256  23.16702  23.21181  23.28444
 Alpha virt. eigenvalues --   23.30412  23.31806  23.40376  23.40951  23.47094
 Alpha virt. eigenvalues --   23.51793  23.55458  23.59690  23.60176  23.70753
 Alpha virt. eigenvalues --   23.74679  23.77943  23.87207  32.46794  32.85048
 Alpha virt. eigenvalues --   32.95806  33.04102  33.08685  33.19229  43.92758
 Alpha virt. eigenvalues --   43.95674  43.96247  43.97040
  Beta  occ. eigenvalues -- -256.40692 -89.02872 -30.15392 -25.98787 -25.98640
  Beta  occ. eigenvalues --  -25.97590 -19.27742 -19.26156 -19.18036 -19.17414
  Beta  occ. eigenvalues --  -14.46280 -14.39376 -14.39013 -14.38829 -14.38157
  Beta  occ. eigenvalues --  -14.37563 -10.35672 -10.34869 -10.29462 -10.27264
  Beta  occ. eigenvalues --  -10.25507 -10.25120 -10.25056 -10.25040 -10.24982
  Beta  occ. eigenvalues --  -10.24931 -10.24713 -10.24634 -10.24595 -10.24553
  Beta  occ. eigenvalues --  -10.24334 -10.24223 -10.23981 -10.23920 -10.23845
  Beta  occ. eigenvalues --  -10.23552 -10.23522 -10.23507 -10.22981 -10.22888
  Beta  occ. eigenvalues --  -10.22720 -10.22653 -10.22565 -10.22362 -10.22251
  Beta  occ. eigenvalues --  -10.22075 -10.21951 -10.21926 -10.21682 -10.21674
  Beta  occ. eigenvalues --  -10.21360 -10.21255 -10.20957 -10.20703 -10.20678
  Beta  occ. eigenvalues --  -10.20651 -10.20395  -8.00919  -5.94569  -5.94249
  Beta  occ. eigenvalues --   -5.93692  -3.46090  -2.22340  -2.21981  -2.18204
  Beta  occ. eigenvalues --   -1.18081  -1.16809  -1.08012  -1.03217  -1.02271
  Beta  occ. eigenvalues --   -0.98758  -0.97668  -0.97334  -0.96384  -0.92203
  Beta  occ. eigenvalues --   -0.84803  -0.84398  -0.84197  -0.83728  -0.83301
  Beta  occ. eigenvalues --   -0.82822  -0.82133  -0.81308  -0.80653  -0.79427
  Beta  occ. eigenvalues --   -0.78838  -0.77374  -0.76392  -0.75337  -0.74859
  Beta  occ. eigenvalues --   -0.73952  -0.73271  -0.72875  -0.72222  -0.70832
  Beta  occ. eigenvalues --   -0.70450  -0.69880  -0.69490  -0.68197  -0.67394
  Beta  occ. eigenvalues --   -0.66868  -0.66276  -0.65510  -0.65302  -0.63696
  Beta  occ. eigenvalues --   -0.63033  -0.61772  -0.61045  -0.59349  -0.58098
  Beta  occ. eigenvalues --   -0.57889  -0.56314  -0.55468  -0.54835  -0.54779
  Beta  occ. eigenvalues --   -0.54065  -0.53773  -0.52735  -0.52602  -0.51888
  Beta  occ. eigenvalues --   -0.51269  -0.50786  -0.49745  -0.49482  -0.49403
  Beta  occ. eigenvalues --   -0.48993  -0.48826  -0.48590  -0.47811  -0.47579
  Beta  occ. eigenvalues --   -0.46830  -0.46774  -0.46413  -0.46089  -0.45819
  Beta  occ. eigenvalues --   -0.45362  -0.45257  -0.44976  -0.44895  -0.44722
  Beta  occ. eigenvalues --   -0.44622  -0.44540  -0.44325  -0.44021  -0.43954
  Beta  occ. eigenvalues --   -0.43704  -0.43544  -0.43375  -0.43006  -0.42488
  Beta  occ. eigenvalues --   -0.42374  -0.41923  -0.41761  -0.41281  -0.41036
  Beta  occ. eigenvalues --   -0.40779  -0.40701  -0.40356  -0.40223  -0.40119
  Beta  occ. eigenvalues --   -0.39692  -0.39470  -0.39355  -0.39225  -0.38885
  Beta  occ. eigenvalues --   -0.38696  -0.38561  -0.38327  -0.37948  -0.37744
  Beta  occ. eigenvalues --   -0.37589  -0.37032  -0.36399  -0.36282  -0.36068
  Beta  occ. eigenvalues --   -0.35907  -0.35362  -0.35159  -0.34810  -0.33893
  Beta  occ. eigenvalues --   -0.33492  -0.33461  -0.33172  -0.32829  -0.32413
  Beta  occ. eigenvalues --   -0.32261  -0.31765  -0.30772  -0.29758  -0.28291
  Beta  occ. eigenvalues --   -0.27819  -0.27518  -0.26960  -0.26406  -0.26186
  Beta  occ. eigenvalues --   -0.25810  -0.24413  -0.24055  -0.22104  -0.20572
  Beta  occ. eigenvalues --   -0.18893  -0.18353
  Beta virt. eigenvalues --   -0.09638  -0.09045  -0.05994  -0.04915  -0.03502
  Beta virt. eigenvalues --   -0.01409  -0.01267  -0.00575  -0.00289   0.00986
  Beta virt. eigenvalues --    0.01044   0.01409   0.01587   0.01643   0.01799
  Beta virt. eigenvalues --    0.03430   0.03498   0.03629   0.04141   0.04698
  Beta virt. eigenvalues --    0.05068   0.05181   0.05480   0.05791   0.06255
  Beta virt. eigenvalues --    0.06386   0.06419   0.07145   0.07674   0.07850
  Beta virt. eigenvalues --    0.08413   0.08424   0.08646   0.09039   0.09218
  Beta virt. eigenvalues --    0.09527   0.09764   0.10138   0.10243   0.10453
  Beta virt. eigenvalues --    0.10904   0.11176   0.11553   0.11698   0.11912
  Beta virt. eigenvalues --    0.12065   0.12086   0.12220   0.12356   0.12868
  Beta virt. eigenvalues --    0.12917   0.13120   0.13269   0.13392   0.13584
  Beta virt. eigenvalues --    0.13817   0.13884   0.14234   0.14353   0.14575
  Beta virt. eigenvalues --    0.14851   0.15128   0.15382   0.15470   0.15660
  Beta virt. eigenvalues --    0.15820   0.16058   0.16267   0.16437   0.16703
  Beta virt. eigenvalues --    0.16744   0.16775   0.17137   0.17284   0.17514
  Beta virt. eigenvalues --    0.17572   0.17824   0.17950   0.18277   0.18662
  Beta virt. eigenvalues --    0.18947   0.19012   0.19377   0.19517   0.19646
  Beta virt. eigenvalues --    0.19960   0.20211   0.20281   0.20498   0.20833
  Beta virt. eigenvalues --    0.21050   0.21236   0.21535   0.21557   0.21713
  Beta virt. eigenvalues --    0.21831   0.22319   0.22462   0.22578   0.22814
  Beta virt. eigenvalues --    0.23109   0.23492   0.23503   0.23718   0.23822
  Beta virt. eigenvalues --    0.24119   0.24519   0.24705   0.24923   0.25091
  Beta virt. eigenvalues --    0.25127   0.25478   0.25695   0.25743   0.26008
  Beta virt. eigenvalues --    0.26085   0.26321   0.26437   0.26814   0.26919
  Beta virt. eigenvalues --    0.27055   0.27156   0.27317   0.27344   0.27762
  Beta virt. eigenvalues --    0.28242   0.28592   0.28709   0.28911   0.28975
  Beta virt. eigenvalues --    0.29356   0.29507   0.29961   0.30045   0.30398
  Beta virt. eigenvalues --    0.30432   0.30635   0.30887   0.31094   0.31336
  Beta virt. eigenvalues --    0.31549   0.31755   0.31923   0.32276   0.32335
  Beta virt. eigenvalues --    0.32581   0.32724   0.32988   0.33183   0.33455
  Beta virt. eigenvalues --    0.33573   0.33716   0.34116   0.34555   0.34729
  Beta virt. eigenvalues --    0.34830   0.35099   0.35455   0.35683   0.35965
  Beta virt. eigenvalues --    0.36001   0.36339   0.36492   0.36691   0.36899
  Beta virt. eigenvalues --    0.37216   0.37392   0.37494   0.37779   0.37973
  Beta virt. eigenvalues --    0.38142   0.38548   0.38608   0.38956   0.39178
  Beta virt. eigenvalues --    0.39277   0.39477   0.39611   0.39715   0.39827
  Beta virt. eigenvalues --    0.39842   0.40340   0.40502   0.40799   0.40972
  Beta virt. eigenvalues --    0.41190   0.41254   0.41322   0.41496   0.41851
  Beta virt. eigenvalues --    0.42140   0.42204   0.42294   0.42722   0.42821
  Beta virt. eigenvalues --    0.43156   0.43217   0.43406   0.43544   0.43831
  Beta virt. eigenvalues --    0.43953   0.44082   0.44251   0.44323   0.44454
  Beta virt. eigenvalues --    0.44604   0.44901   0.45220   0.45348   0.45504
  Beta virt. eigenvalues --    0.45602   0.45907   0.45941   0.46000   0.46107
  Beta virt. eigenvalues --    0.46351   0.46420   0.46620   0.46778   0.46825
  Beta virt. eigenvalues --    0.47076   0.47144   0.47537   0.47602   0.48013
  Beta virt. eigenvalues --    0.48101   0.48300   0.48345   0.48532   0.48652
  Beta virt. eigenvalues --    0.48753   0.49284   0.49439   0.49516   0.49557
  Beta virt. eigenvalues --    0.49701   0.49880   0.50180   0.50267   0.50566
  Beta virt. eigenvalues --    0.50794   0.50950   0.51119   0.51187   0.51439
  Beta virt. eigenvalues --    0.51550   0.51626   0.51688   0.52100   0.52238
  Beta virt. eigenvalues --    0.52558   0.52687   0.52840   0.52966   0.53027
  Beta virt. eigenvalues --    0.53106   0.53544   0.53788   0.53961   0.54410
  Beta virt. eigenvalues --    0.54475   0.54736   0.54811   0.55077   0.55268
  Beta virt. eigenvalues --    0.55403   0.55688   0.55744   0.55953   0.56025
  Beta virt. eigenvalues --    0.56270   0.56430   0.56543   0.57062   0.57169
  Beta virt. eigenvalues --    0.57534   0.57731   0.57859   0.57997   0.58197
  Beta virt. eigenvalues --    0.58350   0.58558   0.58995   0.59433   0.59795
  Beta virt. eigenvalues --    0.59899   0.60011   0.60258   0.60487   0.60829
  Beta virt. eigenvalues --    0.61070   0.61385   0.61513   0.61842   0.62361
  Beta virt. eigenvalues --    0.62521   0.62677   0.62961   0.63215   0.63261
  Beta virt. eigenvalues --    0.63475   0.63711   0.64283   0.64517   0.64648
  Beta virt. eigenvalues --    0.64672   0.65043   0.65363   0.65457   0.65909
  Beta virt. eigenvalues --    0.66002   0.66114   0.66493   0.66668   0.66847
  Beta virt. eigenvalues --    0.67247   0.67565   0.67842   0.68031   0.68437
  Beta virt. eigenvalues --    0.68567   0.68759   0.68906   0.69211   0.69592
  Beta virt. eigenvalues --    0.69841   0.70252   0.70403   0.70759   0.70867
  Beta virt. eigenvalues --    0.71311   0.71615   0.71801   0.71925   0.72392
  Beta virt. eigenvalues --    0.72544   0.72591   0.72960   0.73257   0.73451
  Beta virt. eigenvalues --    0.73850   0.73888   0.74047   0.74407   0.74642
  Beta virt. eigenvalues --    0.75046   0.75081   0.75740   0.75771   0.76270
  Beta virt. eigenvalues --    0.76379   0.76665   0.76795   0.77219   0.77462
  Beta virt. eigenvalues --    0.78073   0.78263   0.78480   0.78660   0.78977
  Beta virt. eigenvalues --    0.79099   0.79192   0.79673   0.79844   0.80236
  Beta virt. eigenvalues --    0.80419   0.80664   0.81086   0.81248   0.81676
  Beta virt. eigenvalues --    0.81742   0.82192   0.82369   0.82772   0.83173
  Beta virt. eigenvalues --    0.83273   0.83711   0.83740   0.84069   0.84409
  Beta virt. eigenvalues --    0.84771   0.84946   0.85375   0.85700   0.86084
  Beta virt. eigenvalues --    0.86283   0.86666   0.86976   0.87411   0.87625
  Beta virt. eigenvalues --    0.87780   0.88140   0.88277   0.88694   0.89022
  Beta virt. eigenvalues --    0.89404   0.89777   0.90045   0.90408   0.90565
  Beta virt. eigenvalues --    0.90800   0.91026   0.91425   0.91665   0.91835
  Beta virt. eigenvalues --    0.92204   0.92684   0.92807   0.92924   0.93630
  Beta virt. eigenvalues --    0.93739   0.94044   0.94357   0.94548   0.94815
[...]
  1668. RY*(   2) H  70                  0.00008     1.67670   
  1669. RY*(   3) H  70                  0.00004     2.15864   
  1670. RY*(   4) H  70                  0.00002     2.06614   
  1671. RY*(   5) H  70                  0.00000     2.98826   
  1672. RY*(   1) H  71                  0.00023     1.38015   
  1673. RY*(   2) H  71                  0.00009     1.93710   
  1674. RY*(   3) H  71                  0.00003     2.14532   
  1675. RY*(   4) H  71                  0.00001     2.17941   
  1676. RY*(   5) H  71                  0.00000     2.54578   
  1677. RY*(   1) H  72                  0.00040     0.94677   
  1678. RY*(   2) H  72                  0.00008     1.92195   
  1679. RY*(   3) H  72                  0.00004     2.06852   
  1680. RY*(   4) H  72                  0.00003     2.19163   
  1681. RY*(   5) H  72                  0.00000     2.86639   
  1682. RY*(   1) H  73                  0.00040     1.05665   
  1683. RY*(   2) H  73                  0.00008     1.72881   
  1684. RY*(   3) H  73                  0.00003     2.14085   
  1685. RY*(   4) H  73                  0.00002     2.05621   
  1686. RY*(   5) H  73                  0.00000     2.92694   
  1687. RY*(   1) H  74                  0.00038     0.95784   
  1688. RY*(   2) H  74                  0.00008     1.78357   
  1689. RY*(   3) H  74                  0.00002     2.03040   
  1690. RY*(   4) H  74                  0.00003     2.19436   
  1691. RY*(   5) H  74                  0.00000     2.98961   
  1692. RY*(   1) H  75                  0.00028     1.10975   
  1693. RY*(   2) H  75                  0.00009     1.84315   
  1694. RY*(   3) H  75                  0.00003     2.07189   
  1695. RY*(   4) H  75                  0.00003     2.16622   
  1696. RY*(   5) H  75                  0.00000     2.84065   
  1697. RY*(   1) H  76                  0.00054     0.89546   
  1698. RY*(   2) H  76                  0.00008     1.77102   
  1699. RY*(   3) H  76                  0.00003     2.17846   
  1700. RY*(   4) H  76                  0.00003     2.10069   
  1701. RY*(   5) H  76                  0.00000     3.02824   
  1702. RY*(   1) H  77                  0.00036     1.18198   
  1703. RY*(   2) H  77                  0.00009     1.63870   
  1704. RY*(   3) H  77                  0.00004     2.32972   
  1705. RY*(   4) H  77                  0.00004     2.13365   
  1706. RY*(   5) H  77                  0.00000     2.89691   
  1707. RY*(   1) H  78                  0.00032     1.08766   
  1708. RY*(   2) H  78                  0.00009     1.79347   
  1709. RY*(   3) H  78                  0.00002     2.06478   
  1710. RY*(   4) H  78                  0.00003     2.10230   
  1711. RY*(   5) H  78                  0.00000     2.90945   
  1712. RY*(   1) H  79                  0.00040     1.03396   
  1713. RY*(   2) H  79                  0.00009     1.80743   
  1714. RY*(   3) H  79                  0.00003     2.09426   
  1715. RY*(   4) H  79                  0.00003     1.99690   
  1716. RY*(   5) H  79                  0.00000     3.00149   
  1717. RY*(   1) H  80                  0.00032     0.98822   
  1718. RY*(   2) H  80                  0.00009     1.77302   
  1719. RY*(   3) H  80                  0.00008     1.97026   
  1720. RY*(   4) H  80                  0.00005     2.22639   
  1721. RY*(   5) H  80                  0.00001     2.81280   
  1722. RY*(   1) H  81                  0.00016     1.73774   
  1723. RY*(   2) H  81                  0.00008     1.91739   
  1724. RY*(   3) H  81                  0.00006     1.10323   
  1725. RY*(   4) H  81                  0.00001     2.92828   
  1726. RY*(   5) H  81                  0.00001     1.72708   
  1727. RY*(   1) H  82                  0.00034     1.50192   
  1728. RY*(   2) H  82                  0.00013     1.48840   
  1729. RY*(   3) H  82                  0.00007     2.11240   
  1730. RY*(   4) H  82                  0.00005     2.10590   
  1731. RY*(   5) H  82                  0.00001     3.08275   
  1732. RY*(   1) H  83                  0.00017     1.70390   
  1733. RY*(   2) H  83                  0.00006     1.16744   
  1734. RY*(   3) H  83                  0.00007     1.98323   
  1735. RY*(   4) H  83                  0.00001     1.79851   
  1736. RY*(   5) H  83                  0.00001     2.81722   
  1737. RY*(   1) H  84                  0.00033     1.08873   
  1738. RY*(   2) H  84                  0.00009     1.60306   
  1739. RY*(   3) H  84                  0.00006     1.93774   
  1740. RY*(   4) H  84                  0.00003     2.14391   
  1741. RY*(   5) H  84                  0.00001     2.88237   
  1742. RY*(   1) H  85                  0.00034     1.64315   
  1743. RY*(   2) H  85                  0.00012     1.50666   
  1744. RY*(   3) H  85                  0.00008     2.11610   
  1745. RY*(   4) H  85                  0.00005     1.96522   
  1746. RY*(   5) H  85                  0.00001     3.10587   
  1747. RY*(   1) H  86                  0.00073     0.82736   
  1748. RY*(   2) H  86                  0.00012     2.35063   
  1749. RY*(   3) H  86                  0.00004     2.68908   
  1750. RY*(   4) H  86                  0.00004     2.32339   
  1751. RY*(   5) H  86                  0.00002     2.66766   
  1752. RY*(   1) H  87                  0.00018     1.46835   
  1753. RY*(   2) H  87                  0.00009     1.57086   
  1754. RY*(   3) H  87                  0.00004     2.15053   
  1755. RY*(   4) H  87                  0.00004     2.10741   
  1756. RY*(   5) H  87                  0.00001     3.02082   
  1757. RY*(   1) H  88                  0.00036     1.13154   
  1758. RY*(   2) H  88                  0.00009     1.57500   
  1759. RY*(   3) H  88                  0.00004     2.19530   
  1760. RY*(   4) H  88                  0.00004     2.16980   
  1761. RY*(   5) H  88                  0.00000     2.96812   
  1762. RY*(   1) H  89                  0.00032     1.84596   
  1763. RY*(   2) H  89                  0.00009     2.42173   
  1764. RY*(   3) H  89                  0.00006     2.11347   
  1765. RY*(   4) H  89                  0.00003     1.40718   
  1766. RY*(   5) H  89                  0.00001     3.05172   
  1767. RY*(   1) H  90                  0.00023     0.99857   
  1768. RY*(   2) H  90                  0.00008     1.69372   
  1769. RY*(   3) H  90                  0.00004     2.12361   
  1770. RY*(   4) H  90                  0.00003     2.14582   
  1771. RY*(   5) H  90                  0.00000     2.81218   
  1772. RY*(   1) H  91                  0.00048     0.99561   
  1773. RY*(   2) H  91                  0.00008     1.78071   
  1774. RY*(   3) H  91                  0.00005     2.17755   
  1775. RY*(   4) H  91                  0.00004     2.04807   
  1776. RY*(   5) H  91                  0.00000     2.97183   
  1777. RY*(   1) H  92                  0.00066     0.82602   
  1778. RY*(   2) H  92                  0.00015     2.44657   
  1779. RY*(   3) H  92                  0.00004     2.28867   
  1780. RY*(   4) H  92                  0.00003     2.18809   
  1781. RY*(   5) H  92                  0.00000     3.02901   
  1782. RY*(   1) H  93                  0.00090     0.94373   
  1783. RY*(   2) H  93                  0.00012     2.49126   
  1784. RY*(   3) H  93                  0.00008     2.53552   
  1785. RY*(   4) H  93                  0.00006     2.36657   
  1786. RY*(   5) H  93                  0.00000     3.27027   
  1831. BD*(   1) C   7 - C   8          0.00513     0.33688   
  1832. BD*(   1) C   7 - H  90          0.00229     0.40897   
  1833. BD*(   1) C   7 - H  91          0.00370     0.41206   
  1834. BD*(   1) C   7 - H  92          0.00355     0.42586   
  1835. BD*(   1) C   8 - S   9          0.01687     0.17942   
  1836. BD*(   1) C   8 - H  89          0.00656     0.39288   
  1837. BD*(   1) C   8 - H  93          0.00980     0.41295   
  1838. BD*(   1) S   9 - C  10          0.00808     0.18780   
  1839. BD*(   1) S   9 -Fe  53          0.04186     0.31002   
  1840. BD*(   1) C  10 - H  86          0.00781     0.39975   
  1841. BD*(   1) C  10 - H  87          0.00377     0.39402   
  1842. BD*(   1) C  10 - H  88          0.00468     0.38495   
  1843. BD*(   1) C  11 - C  15          0.01056     0.55812   
  1844. BD*(   1) C  11 - C  42          0.01036     0.54722   
  1845. BD*(   2) C  11 - C  42          0.19040     0.04516  1860(v),1917(v),469(g)
                                                    205(r),1278(g),1856(r)
                                                    206(r)
  1846. BD*(   1) C  11 - H  64          0.00659     0.44828   
  1847. BD*(   1) C  12 - C  18          0.01032     0.58932   
  1848. BD*(   1) C  12 - C  25          0.01045     0.57640   
  1849. BD*(   1) C  12 - H  67          0.00729     0.45338   
  1850. BD*(   1) C  13 - C  28          0.01082     0.57090   
  1851. BD*(   2) C  13 - C  28          0.19380     0.04767  1899(v),1884(v),205(r)
                                                    1882(v),521(g),206(r),914(g)
  1852. BD*(   1) C  13 - C  32          0.01053     0.60352   
  1853. BD*(   1) C  13 - H  66          0.00742     0.44972   
  1854. BD*(   1) C  14 - C  35          0.01053     0.57427   
  1855. BD*(   1) C  14 - C  39          0.01064     0.58825   
  1856. BD*(   2) C  14 - C  39          0.18038     0.05797  1917(v),197(v),547(g)
                                                    1200(g),1845(r)
  1857. BD*(   1) C  14 - H  65          0.00706     0.44894   
  1858. BD*(   1) C  15 - C  16          0.01629     0.49151   
  1859. BD*(   1) C  15 - N  49          0.01450     0.47863   
  1860. BD*(   2) C  15 - N  49          0.31095     0.00705  1845(v),1862(v),192(v)
                                                    205(v),575(g),1458(g),204(v)
                                                    206(v),469(v),1827(r)
  1861. BD*(   1) C  16 - C  17          0.01057     0.58967   
  1862. BD*(   2) C  16 - C  17          0.12813     0.06425  1860(v),192(v),1870(v)
                                                    1869(v),1868(v)
  1863. BD*(   1) C  16 - C  20          0.01141     0.37524   
  1864. BD*(   1) C  17 - C  18          0.01673     0.48628   
  1865. BD*(   1) C  17 - C  19          0.00917     0.37997   
  1866. BD*(   1) C  18 - N  49          0.01468     0.48703   
  1867. BD*(   1) C  19 - H  71          0.00270     0.41266   
  1868. BD*(   1) C  19 - H  72          0.00366     0.40363   
  1869. BD*(   1) C  19 - H  73          0.00452     0.40678   
  1870. BD*(   1) C  20 - C  21          0.00669     0.34732   
  1871. BD*(   1) C  20 - H  57          0.00599     0.41468   
  1872. BD*(   1) C  20 - H  58          0.00578     0.41679   
  1873. BD*(   1) C  21 - C  22          0.04204     0.32606   
  1874. BD*(   1) C  21 - H  55          0.00628     0.37838   
  1875. BD*(   1) C  21 - H  56          0.00674     0.37509   
  1876. BD*(   1) C  22 - O  23          0.03163     0.48094   
  1877. BD*(   2) C  22 - O  23          0.09762     0.06841   
  1878. BD*(   1) C  22 - O  24          0.03552     0.49268   
  1879. BD*(   1) O  24 - H  54          0.00657     0.35816   
  1880. BD*(   1) C  25 - C  26          0.01497     0.50418   
  1881. BD*(   1) C  25 - N  50          0.01526     0.48068   
  1882. BD*(   2) C  25 - N  50          0.35072     0.00176  191(v),1884(v),1851(v)
                                                    205(v),206(v),833(g),1484(g)
                                                    496(v),832(g)
  1883. BD*(   1) C  26 - C  27          0.01293     0.61013   
  1884. BD*(   2) C  26 - C  27          0.15050     0.07803  1851(v),1882(v),1893(v)
                                                    1891(v),1889(v)
  1885. BD*(   1) C  26 - C  29          0.00793     0.39112   
  1886. BD*(   1) C  27 - C  28          0.01579     0.54165   
  1887. BD*(   1) C  27 - C  30          0.01123     0.54037   
  1888. BD*(   1) C  28 - N  50          0.01618     0.46131   
  1889. BD*(   1) C  29 - H  74          0.00306     0.42303   
  1890. BD*(   1) C  29 - H  75          0.00326     0.41921   
  1891. BD*(   1) C  29 - H  76          0.00497     0.41407   
  1892. BD*(   1) C  30 - C  31          0.00373     0.40959   
  1893. BD*(   2) C  30 - C  31          0.05053     0.01935   
  1894. BD*(   1) C  30 - H  85          0.00646     0.46192   
  1895. BD*(   1) C  31 - H  83          0.00141     0.46219   
  1896. BD*(   1) C  31 - H  84          0.00257     0.46094   
  1897. BD*(   1) C  32 - C  33          0.01641     0.48345   
  1898. BD*(   1) C  32 - N  51          0.01544     0.47334   
  1899. BD*(   2) C  32 - N  51          0.33914    -0.00219  1851(v),1901(v),197(v)
                                                    206(v),1016(g),1510(g)
                                                    521(v),204(v),1827(r)
  1900. BD*(   1) C  33 - C  34          0.01214     0.62675   
  1901. BD*(   2) C  33 - C  34          0.15951     0.06173  1910(v),1899(v),197(v)
                                                    1907(v),1908(v),1068(g)
  1902. BD*(   1) C  33 - C  36          0.00849     0.36694   
  1903. BD*(   1) C  34 - C  35          0.01700     0.48811   
  1904. BD*(   1) C  34 - C  37          0.01146     0.52665   
  1905. BD*(   1) C  35 - N  51          0.01460     0.48262   
  1906. BD*(   1) C  36 - H  77          0.00376     0.42890   
  1907. BD*(   1) C  36 - H  78          0.00373     0.40218   
  1908. BD*(   1) C  36 - H  79          0.00387     0.40049   
  1909. BD*(   1) C  37 - C  38          0.00399     0.39032   
  1910. BD*(   2) C  37 - C  38          0.06236     0.00007   
  1911. BD*(   1) C  37 - H  82          0.00554     0.45542   
  1912. BD*(   1) C  38 - H  80          0.00373     0.45533   
  1913. BD*(   1) C  38 - H  81          0.00187     0.45055   
  1914. BD*(   1) C  39 - C  40          0.01629     0.49678   
  1915. BD*(   1) C  39 - N  52          0.01512     0.47445   
  1916. BD*(   1) C  40 - C  41          0.00980     0.59163   
  1917. BD*(   2) C  40 - C  41          0.11460     0.06966  1856(v),1845(v),1925(v)
                                                    1924(v)
  1918. BD*(   1) C  40 - C  43          0.00901     0.37252   
  1919. BD*(   1) C  41 - C  42          0.01654     0.46840   
  1920. BD*(   1) C  41 - C  44          0.01185     0.37303   
  1921. BD*(   1) C  42 - N  52          0.01448     0.46674   
  1922. BD*(   1) C  43 - H  68          0.00340     0.40553   
  1923. BD*(   1) C  43 - H  69          0.00258     0.40378   
  1924. BD*(   1) C  43 - H  70          0.00453     0.40422   
  1925. BD*(   1) C  44 - C  45          0.00838     0.34420   
  1926. BD*(   1) C  44 - H  59          0.00720     0.38848   
  1927. BD*(   1) C  44 - H  60          0.00678     0.40370   
  1928. BD*(   1) C  45 - C  46          0.03945     0.35149   
  1929. BD*(   1) C  45 - H  61          0.00550     0.39453   
  1930. BD*(   1) C  45 - H  62          0.00545     0.39712   
  1931. BD*(   1) C  46 - O  47          0.03626     0.47727   
  1932. BD*(   2) C  46 - O  47          0.07969     0.09221   
  1933. BD*(   1) C  46 - O  48          0.03649     0.49561   
  1934. BD*(   1) O  48 - H  63          0.00781     0.36913   
  1935. BD*(   1) N  49 -Fe  53          0.03322     0.41976   
  1936. BD*(   1) N  50 -Fe  53          0.03145     0.87100   
  1937. BD*(   1) N  51 -Fe  53          0.03116     0.55451   
  1938. BD*(   1) N  52 -Fe  53          0.03169     7.09826   
       -------------------------------
              Total Lewis  175.42596  ( 97.3483%)
        Valence non-Lewis    4.42987  (  2.4582%)
        Rydberg non-Lewis    0.34868  (  0.1935%)
       -------------------------------
            Total unit  2  180.20452  (100.0000%)
           Charge unit  2    1.79548
 1\1\GINC-NODE672\SP\UPBE1PBE\def2TZVP\C41H46Fe1N6O4S1(5)\ZHARTOVSKA\11
 -Nov-2022\0\\# PBE1PBE/def2TZVP empiricaldispersion=GD3BJ int=(grid=ul
 trafine) geom=check pop=nbo\\1jdl_II_Q\\0,5\C,0,4.158,5.19,5.944\C,0,3
 .654,5.545,4.585\N,0,2.436,6.156,4.378\C,0,4.171,5.309,3.357\C,0,2.221
 ,6.273,3.081\N,0,3.258,5.765,2.439\C,0,3.71028429,7.58950733,-3.349057
 77\C,0,4.476,6.407,-2.727\S,0,3.575,5.085,-1.904\C,0,4.526,3.672,-2.41
 2\C,0,0.469,6.703,-0.316\C,0,2.107,2.325,0.872\C,0,6.617,4.059,0.951\C
 ,0,4.909,8.49,0.311\C,0,0.529,5.333,-0.054\C,0,-0.599,4.436,-0.141\C,0
 ,-0.122,3.206,0.19\C,0,1.282,3.36,0.488\C,0,-0.89,1.893,0.194\C,0,-2.0
 54,4.856,-0.39\C,0,-2.672,5.169,0.972\C,0,-4.095,5.731,0.903\O,0,-4.68
 5,5.79,-0.194\O,0,-4.629,6.109,1.966\C,0,3.482,2.435,1.023\C,0,4.36,1.
 342,1.359\C,0,5.627,1.809,1.146\C,0,5.525,3.205,0.953\C,0,3.908,-0.02,
 1.868\C,0,6.819,1.12,0.84\C,0,7.02,-0.37,0.624\C,0,6.552,5.405,0.736\C
 ,0,7.691,6.299,0.727\C,0,7.207,7.503,0.38\C,0,5.762,7.404,0.427\C,0,9.
 137,5.934,1.069\C,0,7.883,8.632,-0.134\C,0,9.377,8.909,-0.263\C,0,3.54
 3,8.408,0.162\C,0,2.696,9.541,-0.128\C,0,1.45,9.042,-0.386\C,0,1.554,7
 .588,-0.223\C,0,3.117,11.011,-0.209\C,0,0.233,9.839,-0.865\C,0,0.252,9
 .794,-2.397\C,0,-0.811,10.655,-3.049\O,0,-0.833,10.704,-4.298\O,0,-1.6
 24,11.279,-2.332\N,0,1.685,4.666,0.313\N,0,4.197,3.59,0.784\N,0,5.367,
 6.089,0.529\N,0,2.848,7.211,0.114\Fe,0,3.539,5.379,0.397\H,0,-4.082891
 08,6.37352937,2.70990138\H,0,-2.69042254,4.26929044,1.55086382\H,0,-2.
 04958924,5.88209345,1.47100158\H,0,-2.08099894,5.72660813,-1.01146001\
 H,0,-2.58927897,4.05658167,-0.858302\H,0,0.30275608,10.8519916,-0.5275
 3577\H,0,-0.66617936,9.39101942,-0.49663892\H,0,1.2120615,10.12351759,
 -2.73552633\H,0,0.10871288,8.7808152,-2.70977046\H,0,-1.30420001,11.87
 323443,-1.64920178\H,0,-0.4762622,7.10906107,-0.61009825\H,0,5.345391,
 9.46655284,0.33941559\H,0,7.58121618,3.63154556,1.13119394\H,0,1.65753
 975,1.37367122,1.066574\H,0,4.05504399,11.0858122,-0.71829031\H,0,2.37
 508003,11.56548833,-0.74472144\H,0,3.21506201,11.40890485,0.77941063\H
 ,0,-0.31595655,1.14557289,0.70068218\H,0,-1.8241989,2.02776587,0.69799
 462\H,0,-1.07007772,1.58205948,-0.81386309\H,0,4.63639232,-0.40539869,
 2.55050457\H,0,2.9678525,0.08047284,2.36892703\H,0,3.80212241,-0.69218
 885,1.04225665\H,0,9.75967258,6.79629459,0.9522657\H,0,9.18846784,5.59
 130097,2.08132822\H,0,9.47407021,5.15915418,0.41257207\H,0,10.08683079
 ,8.18319704,0.07500932\H,0,9.71546774,9.82916621,-0.69152506\H,0,7.246
 76051,9.41587025,-0.48846686\H,0,8.00929443,-0.77345478,0.5655126\H,0,
 6.1722984,-1.01616371,0.53032795\H,0,7.69609611,1.72592209,0.74801725\
 H,0,5.45491079,3.65769424,-1.8811327\H,0,3.97876612,2.77791088,-2.1974
 3132\H,0,4.71683845,3.72974903,-3.46325912\H,0,5.05286294,5.95778943,-
 3.50824197\H,0,4.29094552,8.01299356,-4.14176954\H,0,2.7749409,7.24410
 09,-3.73729369\H,0,3.53294321,8.33303976,-2.60031906\H,0,5.16138634,6.
 81440276,-2.01343952\H,0,5.10077555,5.66775422,6.11080874\H,0,3.456143
 17,5.51860488,6.68177762\H,0,4.27845936,4.12909879,6.01384383\H,0,5.11
 453995,4.85254029,3.14187936\H,0,1.35422561,6.70570155,2.62671867\H,0,
 1.8129322,6.46256665,5.09758558\\Version=ES64L-G16RevA.03\State=5-A\HF
 =-3879.3609744\S2=6.085689\S2-1=0.\S2A=6.002537\RMSD=5.643e-09\Dipole=
 1.0203649,0.4701274,4.1315622\Quadrupole=-24.583776,9.2201071,15.36366
 89,8.2993304,-35.8376399,18.6130518\PG=C01 [X(C41H46Fe1N6O4S1)]\\@


 WHERE THERE IS MUCH DESIRE TO LEARN, THERE OF NECESSITY WILL BE
 MUCH ARGUING, MUCH WRITING, MANY OPINIONS; FOR OPINION IN GOOD MEN
 IS BUT KNOWLEDGE IN THE MAKING. -- JOHN MILTON.
 Job cpu time:       5 days  0 hours 57 minutes 14.2 seconds.
 Elapsed time:       1 days  6 hours 19 minutes 39.1 seconds.
 File lengths (MBytes):  RWF=   3452 Int=      0 D2E=      0 Chk=    289 Scr=      1
 Normal termination of Gaussian 16 at Fri Nov 11 17:35:02 2022.
