 Entering Gaussian System, Link 0=g16
 Input=/net/homes/chemie/zhartovska/work/BioModel/Konrad/1jp6/1jp612/Teil1/def2TZVP/nbo/1jp612.com
 Output=/net/homes/chemie/zhartovska/work/BioModel/Konrad/1jp6/1jp612/Teil1/def2TZVP/nbo/1jp612.log
 Initial command:
 /afs/math/software/gaussian/g16.A03/g16/l1.exe "/scratch/zhartovska_gaussian.1fxSeS5/Gau-32030.inp" -scrdir="/scratch/zhartovska_gaussian.1fxSeS5/"
 Entering Link 1 = /afs/math/software/gaussian/g16.A03/g16/l1.exe PID=     32031.
  
 Copyright (c) 1988,1990,1992,1993,1995,1998,2003,2009,2016,
            Gaussian, Inc.  All Rights Reserved.
  
 This is part of the Gaussian(R) 16 program.  It is based on
 the Gaussian(R) 09 system (copyright 2009, Gaussian, Inc.),
 the Gaussian(R) 03 system (copyright 2003, Gaussian, Inc.),
 the Gaussian(R) 98 system (copyright 1998, Gaussian, Inc.),
 the Gaussian(R) 94 system (copyright 1995, Gaussian, Inc.),
 the Gaussian 92(TM) system (copyright 1992, Gaussian, Inc.),
 the Gaussian 90(TM) system (copyright 1990, Gaussian, Inc.),
 the Gaussian 88(TM) system (copyright 1988, Gaussian, Inc.),
 the Gaussian 86(TM) system (copyright 1986, Carnegie Mellon
 University), and the Gaussian 82(TM) system (copyright 1983,
 Carnegie Mellon University). Gaussian is a federally registered
 trademark of Gaussian, Inc.
  
 This software contains proprietary and confidential information,
 including trade secrets, belonging to Gaussian, Inc.
  
 This software is provided under written license and may be
 used, copied, transmitted, or stored only in accord with that
 written license.
  
 The following legend is applicable only to US Government
 contracts under FAR:
  
                    RESTRICTED RIGHTS LEGEND
  
 Use, reproduction and disclosure by the US Government is
 subject to restrictions as set forth in subparagraphs (a)
 and (c) of the Commercial Computer Software - Restricted
 Rights clause in FAR 52.227-19.
  
 Gaussian, Inc.
 340 Quinnipiac St., Bldg. 40, Wallingford CT 06492
  
  
 ---------------------------------------------------------------
 Warning -- This program may not be used in any manner that
 competes with the business of Gaussian, Inc. or will provide
 assistance to any competitor of Gaussian, Inc.  The licensee
 of this program is prohibited from giving any competitor of
 Gaussian, Inc. access to this program.  By using this program,
 the user acknowledges that Gaussian, Inc. is engaged in the
 business of creating and licensing software in the field of
 computational chemistry and represents and warrants to the
 licensee that it is not a competitor of Gaussian, Inc. and that
 it will not use this program in any manner prohibited above.
 ---------------------------------------------------------------
  

 Cite this work as:
 Gaussian 16, Revision A.03,
 M. J. Frisch, G. W. Trucks, H. B. Schlegel, G. E. Scuseria, 
 M. A. Robb, J. R. Cheeseman, G. Scalmani, V. Barone, 
 G. A. Petersson, H. Nakatsuji, X. Li, M. Caricato, A. V. Marenich, 
 J. Bloino, B. G. Janesko, R. Gomperts, B. Mennucci, H. P. Hratchian, 
 J. V. Ortiz, A. F. Izmaylov, J. L. Sonnenberg, D. Williams-Young, 
 F. Ding, F. Lipparini, F. Egidi, J. Goings, B. Peng, A. Petrone, 
 T. Henderson, D. Ranasinghe, V. G. Zakrzewski, J. Gao, N. Rega, 
 G. Zheng, W. Liang, M. Hada, M. Ehara, K. Toyota, R. Fukuda, 
 J. Hasegawa, M. Ishida, T. Nakajima, Y. Honda, O. Kitao, H. Nakai, 
 T. Vreven, K. Throssell, J. A. Montgomery, Jr., J. E. Peralta, 
 F. Ogliaro, M. J. Bearpark, J. J. Heyd, E. N. Brothers, K. N. Kudin, 
 V. N. Staroverov, T. A. Keith, R. Kobayashi, J. Normand, 
 K. Raghavachari, A. P. Rendell, J. C. Burant, S. S. Iyengar, 
 J. Tomasi, M. Cossi, J. M. Millam, M. Klene, C. Adamo, R. Cammi, 
 J. W. Ochterski, R. L. Martin, K. Morokuma, O. Farkas, 
 J. B. Foresman, and D. J. Fox, Gaussian, Inc., Wallingford CT, 2016.
 
 ******************************************
 Gaussian 16:  ES64L-G16RevA.03 25-Dec-2016
                14-Nov-2022 
 ******************************************
 %nprocs=12
 Will use up to   12 processors via shared memory.
 %mem=16GB
 %oldchk=1jp6_III_Dn.chk
 %chk=1jp6_III_D.chk
 Copying data from "1jp6_III_Dn.chk" to current chk file "1jp6_III_D.chk"
 IOpt=  2 FromEx=T IUOpen= 4 IOptOp= 5 NList=   0 IFRang= 0 IUIn= 4 IUOut= 2.
 ----------------------------------------------------------------------
 # PBE1PBE/def2TZVP empiricaldispersion=GD3BJ scf=maxcycle=999 geom=che
 ck pop=nbo guess=read
 ----------------------------------------------------------------------
 1/29=2,38=1,172=1/1;
 2/12=2,40=1/2;
 3/5=44,7=101,11=2,14=-4,25=1,30=1,74=-13,116=-2,124=41/1,2,3;
 4/5=1/1;
 5/5=2,7=999,38=6/2;
 6/7=2,8=2,9=2,10=2,28=1,40=1/1,7;
 99/5=1,9=1/99;
 ----------
 1jp6_III_D
 ----------
 Structure from the checkpoint file:  "1jp6_III_D.chk"
 Charge =  1 Multiplicity = 2
 Z-Matrix found in chk file.
 C,0,9.63,29.552999,2.557
 C,0,10.795,29.417999,3.487
 N,0,10.968,30.237,4.581
 C,0,11.88,28.607,3.45
 C,0,12.11,29.941,5.175
 N,0,12.683,28.955999,4.509
 Fe,0,14.821,27.955,4.745
 C,0,16.125999,31.091,4.992
 C,0,13.993,28.052,8.056
 C,0,13.559,24.792,4.516
 C,0,15.701,27.858999,1.491
 N,0,15.009,29.292,6.216
 C,0,15.572,30.546,6.138
 C,0,15.51,31.223,7.43
 C,0,14.902,30.339001,8.285
 C,0,14.603,29.165001,7.539
 C,0,14.585,30.528,9.754
 C,0,16.021,32.592999,7.684
 C,0,14.874,33.652,7.837
 C,0,13.879,33.578999,6.709
 O,0,14.174,33.959999,5.563
 O,0,12.722,33.111,6.98
 N,0,13.95,26.672001,6.003
 C,0,13.689,26.891001,7.351
 C,0,13.037,25.701,7.92
 C,0,12.918,24.805,6.939
 C,0,13.488,25.42,5.765
 C,0,12.619,25.607,9.362
 C,0,12.32,23.413,6.981
 C,0,12.74397196,22.52110061,7.90907882
 N,0,14.658,26.598,3.273
 C,0,14.103,25.326,3.356
 C,0,14.184,24.656,2.088
 C,0,14.796,25.532,1.252
 C,0,15.076,26.731001,1.999
 C,0,13.68,23.267,1.836
 C,0,15.18,25.419001,-0.189
 C,0,14.91687671,24.27904412,-0.87298209
 N,0,15.736,29.235001,3.466
 C,0,16.016001,29.027,2.154
 C,0,16.676001,30.150999,1.581
 C,0,16.806,31.072001,2.592
 C,0,16.205999,30.493,3.768
 C,0,17.143999,30.273001,0.151
 C,0,17.471001,32.415001,2.478
 C,0,19.004999,32.154999,2.738
 C,0,19.898001,33.358002,2.675
 O,0,20.177999,33.931,1.598
 O,0,20.384001,33.765999,3.767
 O,0,16.879,27.052999,5.033
 H,0,17.73033133,27.49665988,5.033
 H,0,16.17693541,27.70775491,5.033
 H,0,12.07487393,27.83891923,2.73098952
 H,0,12.503716,30.41858511,6.04781165
 H,0,10.32839444,30.94553285,4.87913741
 H,0,9.90091146,29.18368223,1.58998805
 H,0,8.80387441,28.98831181,2.93587318
 H,0,9.35239294,30.58351014,2.48031155
 H,0,15.09553948,34.04486611,5.30773042
 H,0,15.30579283,34.63082387,7.85594152
 H,0,14.36365056,33.47956122,8.76150436
 H,0,16.65057967,32.88247462,6.86868822
 H,0,16.60241882,32.58275212,8.58219104
 H,0,21.09569083,34.06338495,1.34917088
 H,0,19.10748142,31.71594628,3.70837625
 H,0,19.34937829,31.44758955,2.01282776
 H,0,17.32542656,32.81737814,1.49728561
 H,0,17.07964599,33.0848772,3.21489017
 H,0,18.0851794,29.77622516,0.04012518
 H,0,16.42396648,29.82227356,-0.49961351
 H,0,17.25457294,31.30698056,-0.10111045
 H,0,15.97272573,27.81889892,0.4568544
 H,0,16.53114317,32.07791244,5.07423163
 H,0,15.3646569,31.0961166,10.21690241
 H,0,13.65605028,31.04945204,9.85420075
 H,0,14.51035359,29.57194647,10.22864678
 H,0,13.72721061,28.07776974,9.09214281
 H,0,13.35913898,26.07225593,9.97895317
 H,0,11.68064725,26.10383877,9.49445889
 H,0,12.51989312,24.57804372,9.63827306
 H,0,13.1543768,23.80372911,4.44891256
 H,0,14.38286115,22.55741808,2.21990065
 H,0,12.73729042,23.13548774,2.32477722
 H,0,13.56007578,23.11657789,0.78343581
 H,0,15.66248219,26.23821035,-0.67992461
 H,0,15.65179553,23.50291702,-0.92218635
 H,0,13.97420925,24.15511749,-1.36381837
 H,0,11.56306868,23.13445843,6.2778858
 H,0,12.91434064,22.83781211,8.91683293
 H,0,12.90835093,21.50018875,7.63409061
 Recover connectivity data from disk.
 Stoichiometry    C38H40FeN6O5(1+,2)
 Framework group  C1[X(C38H40FeN6O5)]
 Deg. of freedom   264
 Full point group                 C1      NOp   1
 Largest Abelian subgroup         C1      NOp   1
 Largest concise Abelian subgroup C1      NOp   1
                         Standard orientation:                         
 ---------------------------------------------------------------------
 Center     Atomic      Atomic             Coordinates (Angstroms)
 Number     Number       Type             X           Y           Z
 ---------------------------------------------------------------------
      1          6           0       -1.584205   -0.057152    5.370489
      2          6           0       -1.242066   -0.471764    3.973568
      3          7           0       -0.535866   -1.621002    3.694172
      4          6           0       -1.447994    0.141076    2.782630
      5          6           0       -0.316856   -1.696704    2.393819
      6          7           0       -0.859390   -0.640343    1.817736
      7         26           0       -0.766322    0.128867   -0.424672
      8          6           0        2.581493   -0.493736   -0.369636
      9          6           0       -1.355789   -3.166658   -1.095311
     10          6           0       -4.119473    0.756792   -0.533048
     11          6           0       -0.156752    3.390013    0.179876
     12          7           0        0.370110   -1.494202   -0.671496
     13          6           0        1.743426   -1.569620   -0.609168
     14          6           0        2.197858   -2.938607   -0.834561
     15          6           0        1.061533   -3.679167   -1.040661
     16          6           0       -0.046396   -2.791976   -0.942789
     17          6           0        0.951997   -5.163364   -1.322324
     18          6           0        3.620105   -3.362424   -0.823294
     19          6           0        4.005448   -4.166983    0.466937
     20          6           0        3.576569   -3.461056    1.726091
     21          8           0        4.149629   -2.428134    2.113617
     22          8           0        2.602098   -3.968465    2.377287
     23          7           0       -2.411712   -0.957573   -0.740316
     24          6           0       -2.458179   -2.321663   -1.005427
     25          6           0       -3.859484   -2.736871   -1.175466
     26          6           0       -4.618238   -1.651160   -1.017793
     27          6           0       -3.708626   -0.563278   -0.752238
     28          6           0       -4.262917   -4.155014   -1.473858
     29          6           0       -6.126238   -1.518125   -1.090390
     30          6           0       -6.795504   -1.977217   -2.175694
     31          7           0       -1.908643    1.766540   -0.205741
     32          6           0       -3.294525    1.844915   -0.283766
     33          6           0       -3.736045    3.196704   -0.081252
     34          6           0       -2.606563    3.923564    0.110480
     35          6           0       -1.485549    3.022443    0.037543
     36          6           0       -5.171943    3.626123   -0.106531
     37          6           0       -2.401352    5.384615    0.355273
     38          6           0       -3.468018    6.218686    0.411099
     39          7           0        0.898746    1.249813   -0.137454
     40          6           0        0.960598    2.584794    0.101315
     41          6           0        2.307849    3.023893    0.240636
     42          6           0        3.091120    1.908082    0.071172
     43          6           0        2.199071    0.798753   -0.156548
     44          6           0        2.758169    4.440458    0.504000
     45          6           0        4.593450    1.875612    0.099853
     46          6           0        5.055845    2.223391   -1.367659
     47          6           0        6.536559    2.258469   -1.601950
     48          8           0        7.265699    3.172814   -1.155872
     49          8           0        7.026668    1.325391   -2.297852
     50          8           0       -0.627854    0.797905   -2.584563
     51          1           0        0.159195    0.964561   -3.108375
     52          1           0       -0.378032    0.388338   -1.753032
     53          1           0       -1.970876    1.060948    2.623474
     54          1           0        0.210741   -2.481120    1.892587
     55          1           0       -0.235668   -2.293462    4.370692
     56          1           0       -1.698815    1.005994    5.409035
     57          1           0       -2.499230   -0.525531    5.667558
     58          1           0       -0.799153   -0.355525    6.033488
     59          1           0        4.675685   -1.911598    1.498755
     60          1           0        5.066859   -4.300563    0.488428
     61          1           0        3.535181   -5.127403    0.430281
     62          1           0        4.239406   -2.491992   -0.884247
     63          1           0        3.803226   -3.976880   -1.679921
     64          1           0        7.831249    3.669571   -1.751678
     65          1           0        4.632047    1.497721   -2.030001
     66          1           0        4.656533    3.182696   -1.622971
     67          1           0        4.965791    2.605982    0.787474
     68          1           0        4.936813    0.900001    0.374051
     69          1           0        2.768487    4.988147   -0.415146
     70          1           0        2.082894    4.907666    1.190018
     71          1           0        3.742317    4.429637    0.923804
     72          1           0        0.024830    4.426328    0.374761
     73          1           0        3.632090   -0.695595   -0.349658
     74          1           0        1.774824   -5.472259   -1.932603
     75          1           0        0.970039   -5.703891   -0.399066
     76          1           0        0.033751   -5.362426   -1.834278
     77          1           0       -1.547402   -4.198970   -1.301506
     78          1           0       -3.562544   -4.588943   -2.156561
     79          1           0       -4.273750   -4.721281   -0.566046
     80          1           0       -5.239415   -4.163532   -1.911212
     81          1           0       -5.172347    0.945500   -0.560328
     82          1           0       -5.503240    3.703601   -1.120996
     83          1           0       -5.769347    2.903891    0.409598
     84          1           0       -5.268235    4.577410    0.373760
     85          1           0       -1.412345    5.771383    0.486332
     86          1           0       -3.805138    6.716082   -0.474253
     87          1           0       -3.973086    6.379831    1.340528
     88          1           0       -6.662455   -1.061727   -0.284740
     89          1           0       -6.525360   -2.915459   -2.613443
     90          1           0       -7.594069   -1.401452   -2.594847
 ---------------------------------------------------------------------
 Rotational constants (GHZ):           0.0705823           0.0505777           0.0376308
 Standard basis: def2TZVP (5D, 7F)
 There are  2056 symmetry adapted cartesian basis functions of A   symmetry.
 There are  1804 symmetry adapted basis functions of A   symmetry.
  1804 basis functions,  2921 primitive gaussians,  2056 cartesian basis functions
   188 alpha electrons      187 beta electrons
       nuclear repulsion energy      7650.2503738740 Hartrees.
 NAtoms=   90 NActive=   90 NUniq=   90 SFac= 1.00D+00 NAtFMM=   60 NAOKFM=T Big=T
 Integral buffers will be    131072 words long.
 Raffenetti 2 integral format.
 Two-electron integral symmetry is turned on.
 Nuclear repulsion after empirical dispersion term =     7650.1234217957 Hartrees.
 One-electron integrals computed using PRISM.
   1 Symmetry operations used in ECPInt.
 ECPInt:  NShTT=  255255 NPrTT=  790653 LenC2=  187571 LenP2D=  376429.
 LDataN:  DoStor=T MaxTD1= 6 Len=  172
 NBasis=  1804 RedAO= T EigKep=  2.52D-06  NBF=  1804
 NBsUse=  1804 1.00D-06 EigRej= -1.00D+00 NBFU=  1804
 Initial guess from the checkpoint file:  "1jp6_III_D.chk"
 B after Tr=    -0.000000   -0.000000    0.000000
         Rot=    1.000000   -0.000000   -0.000000    0.000000 Ang=   0.00 deg.
 Initial guess <Sx>= 0.0000 <Sy>= 0.0000 <Sz>= 0.5000 <S**2>= 1.8007 S= 0.9320
 Requested convergence on RMS density matrix=1.00D-08 within 999 cycles.
 Requested convergence on MAX density matrix=1.00D-06.
 Requested convergence on             energy=1.00D-06.
 No special actions if energy rises.
 SCF Done:  E(UPBE1PBE) =  -3438.34921284     A.U. after    1 cycles
            NFock=  1  Conv=0.13D-08     -V/T= 2.0032
 <Sx>= 0.0000 <Sy>= 0.0000 <Sz>= 0.5000 <S**2>= 1.8007 S= 0.9320
 <L.S>= 0.000000000000E+00
 Annihilation of the first spin contaminant:
 S**2 before annihilation     1.8007,   after     0.9256

 **********************************************************************

            Population analysis using the SCF density.

 **********************************************************************

 Orbital symmetries:
 Alpha Orbitals:
       Occupied  (A) (A) (A) (A) (A) (A) (A) (A) (A) (A) (A) (A)
                 (A) (A) (A) (A) (A) (A) (A) (A) (A) (A) (A) (A)
                 (A) (A) (A) (A) (A) (A) (A) (A) (A) (A) (A) (A)
                 (A) (A) (A) (A) (A) (A) (A) (A) (A) (A) (A) (A)
                 (A) (A) (A) (A) (A) (A) (A) (A) (A) (A) (A) (A)
                 (A) (A) (A) (A) (A) (A) (A) (A) (A) (A) (A) (A)
                 (A) (A) (A) (A) (A) (A) (A) (A) (A) (A) (A) (A)
                 (A) (A) (A) (A) (A) (A) (A) (A) (A) (A) (A) (A)
                 (A) (A) (A) (A) (A) (A) (A) (A) (A) (A) (A) (A)
                 (A) (A) (A) (A) (A) (A) (A) (A) (A) (A) (A) (A)
                 (A) (A) (A) (A) (A) (A) (A) (A) (A) (A) (A) (A)
                 (A) (A) (A) (A) (A) (A) (A) (A) (A) (A) (A) (A)
                 (A) (A) (A) (A) (A) (A) (A) (A) (A) (A) (A) (A)
                 (A) (A) (A) (A) (A) (A) (A) (A) (A) (A) (A) (A)
                 (A) (A) (A) (A) (A) (A) (A) (A) (A) (A) (A) (A)
                 (A) (A) (A) (A) (A) (A) (A) (A)
       Virtual   (A) (A) (A) (A) (A) (A) (A) (A) (A) (A) (A) (A)
                 (A) (A) (A) (A) (A) (A) (A) (A) (A) (A) (A) (A)
                 (A) (A) (A) (A) (A) (A) (A) (A) (A) (A) (A) (A)
                 (A) (A) (A) (A) (A) (A) (A) (A) (A) (A) (A) (A)
                 (A) (A) (A) (A) (A) (A) (A) (A) (A) (A) (A) (A)
                 (A) (A) (A) (A) (A) (A) (A) (A) (A) (A) (A) (A)
                 (A) (A) (A) (A) (A) (A) (A) (A) (A) (A) (A) (A)
                 (A) (A) (A) (A) (A) (A) (A) (A) (A) (A) (A) (A)
                 (A) (A) (A) (A) (A) (A) (A) (A) (A) (A) (A) (A)
                 (A) (A) (A) (A) (A) (A) (A) (A) (A) (A) (A) (A)
                 (A) (A) (A) (A) (A) (A) (A) (A) (A) (A) (A) (A)
                 (A) (A) (A) (A) (A) (A) (A) (A) (A) (A) (A) (A)
                 (A) (A) (A) (A) (A) (A) (A) (A) (A) (A) (A) (A)
                 (A) (A) (A) (A) (A) (A) (A) (A) (A) (A) (A) (A)
                 (A) (A) (A) (A) (A) (A) (A) (A) (A) (A) (A) (A)
                 (A) (A) (A) (A) (A) (A) (A) (A) (A) (A) (A) (A)
                 (A) (A) (A) (A) (A) (A) (A) (A) (A) (A) (A) (A)
                 (A) (A) (A) (A) (A) (A) (A) (A) (A) (A) (A) (A)
                 (A) (A) (A) (A) (A) (A) (A) (A) (A) (A) (A) (A)
                 (A) (A) (A) (A) (A) (A) (A) (A) (A) (A) (A) (A)
                 (A) (A) (A) (A) (A) (A) (A) (A) (A) (A) (A) (A)
                 (A) (A) (A) (A) (A) (A) (A) (A) (A) (A) (A) (A)
                 (A) (A) (A) (A) (A) (A) (A) (A) (A) (A) (A) (A)
                 (A) (A) (A) (A) (A) (A) (A) (A) (A) (A) (A) (A)
                 (A) (A) (A) (A) (A) (A) (A) (A) (A) (A) (A) (A)
                 (A) (A) (A) (A) (A) (A) (A) (A) (A) (A) (A) (A)
                 (A) (A) (A) (A) (A) (A) (A) (A) (A) (A) (A) (A)
                 (A) (A) (A) (A) (A) (A) (A) (A) (A) (A) (A) (A)
                 (A) (A) (A) (A) (A) (A) (A) (A) (A) (A) (A) (A)
                 (A) (A) (A) (A) (A) (A) (A) (A) (A) (A) (A) (A)
                 (A) (A) (A) (A) (A) (A) (A) (A) (A) (A) (A) (A)
                 (A) (A) (A) (A) (A) (A) (A) (A) (A) (A) (A) (A)
                 (A) (A) (A) (A) (A) (A) (A) (A) (A) (A) (A) (A)
                 (A) (A) (A) (A) (A) (A) (A) (A) (A) (A) (A) (A)
                 (A) (A) (A) (A) (A) (A) (A) (A) (A) (A) (A) (A)
                 (A) (A) (A) (A) (A) (A) (A) (A) (A) (A) (A) (A)
                 (A) (A) (A) (A) (A) (A) (A) (A) (A) (A) (A) (A)
                 (A) (A) (A) (A) (A) (A) (A) (A) (A) (A) (A) (A)
                 (A) (A) (A) (A) (A) (A) (A) (A) (A) (A) (A) (A)
                 (A) (A) (A) (A) (A) (A) (A) (A) (A) (A) (A) (A)
                 (A) (A) (A) (A) (A) (A) (A) (A) (A) (A) (A) (A)
                 (A) (A) (A) (A) (A) (A) (A) (A) (A) (A) (A) (A)
                 (A) (A) (A) (A) (A) (A) (A) (A) (A) (A) (A) (A)
                 (A) (A) (A) (A) (A) (A) (A) (A) (A) (A) (A) (A)
                 (A) (A) (A) (A) (A) (A) (A) (A) (A) (A) (A) (A)
                 (A) (A) (A) (A) (A) (A) (A) (A) (A) (A) (A) (A)
                 (A) (A) (A) (A) (A) (A) (A) (A) (A) (A) (A) (A)
                 (A) (A) (A) (A) (A) (A) (A) (A) (A) (A) (A) (A)
                 (A) (A) (A) (A) (A) (A) (A) (A) (A) (A) (A) (A)
                 (A) (A) (A) (A) (A) (A) (A) (A) (A) (A) (A) (A)
                 (A) (A) (A) (A) (A) (A) (A) (A) (A) (A) (A) (A)
                 (A) (A) (A) (A) (A) (A) (A) (A) (A) (A) (A) (A)
                 (A) (A) (A) (A) (A) (A) (A) (A) (A) (A) (A) (A)
                 (A) (A) (A) (A) (A) (A) (A) (A) (A) (A) (A) (A)
                 (A) (A) (A) (A) (A) (A) (A) (A) (A) (A) (A) (A)
                 (A) (A) (A) (A) (A) (A) (A) (A) (A) (A) (A) (A)
                 (A) (A) (A) (A) (A) (A) (A) (A) (A) (A) (A) (A)
                 (A) (A) (A) (A) (A) (A) (A) (A) (A) (A) (A) (A)
                 (A) (A) (A) (A) (A) (A) (A) (A) (A) (A) (A) (A)
                 (A) (A) (A) (A) (A) (A) (A) (A) (A) (A) (A) (A)
                 (A) (A) (A) (A) (A) (A) (A) (A) (A) (A) (A) (A)
                 (A) (A) (A) (A) (A) (A) (A) (A) (A) (A) (A) (A)
                 (A) (A) (A) (A) (A) (A) (A) (A) (A) (A) (A) (A)
                 (A) (A) (A) (A) (A) (A) (A) (A) (A) (A) (A) (A)
                 (A) (A) (A) (A) (A) (A) (A) (A) (A) (A) (A) (A)
                 (A) (A) (A) (A) (A) (A) (A) (A) (A) (A) (A) (A)
                 (A) (A) (A) (A) (A) (A) (A) (A) (A) (A) (A) (A)
                 (A) (A) (A) (A) (A) (A) (A) (A) (A) (A) (A) (A)
                 (A) (A) (A) (A) (A) (A) (A) (A) (A) (A) (A) (A)
                 (A) (A) (A) (A) (A) (A) (A) (A) (A) (A) (A) (A)
                 (A) (A) (A) (A) (A) (A) (A) (A) (A) (A) (A) (A)
                 (A) (A) (A) (A) (A) (A) (A) (A) (A) (A) (A) (A)
                 (A) (A) (A) (A) (A) (A) (A) (A) (A) (A) (A) (A)
                 (A) (A) (A) (A) (A) (A) (A) (A) (A) (A) (A) (A)
                 (A) (A) (A) (A) (A) (A) (A) (A) (A) (A) (A) (A)
                 (A) (A) (A) (A) (A) (A) (A) (A) (A) (A) (A) (A)
                 (A) (A) (A) (A) (A) (A) (A) (A) (A) (A) (A) (A)
                 (A) (A) (A) (A) (A) (A) (A) (A) (A) (A) (A) (A)
                 (A) (A) (A) (A) (A) (A) (A) (A) (A) (A) (A) (A)
                 (A) (A) (A) (A) (A) (A) (A) (A) (A) (A) (A) (A)
                 (A) (A) (A) (A) (A) (A) (A) (A) (A) (A) (A) (A)
                 (A) (A) (A) (A) (A) (A) (A) (A) (A) (A) (A) (A)
                 (A) (A) (A) (A) (A) (A) (A) (A) (A) (A) (A) (A)
                 (A) (A) (A) (A) (A) (A) (A) (A) (A) (A) (A) (A)
                 (A) (A) (A) (A) (A) (A) (A) (A) (A) (A) (A) (A)
                 (A) (A) (A) (A) (A) (A) (A) (A) (A) (A) (A) (A)
                 (A) (A) (A) (A) (A) (A) (A) (A) (A) (A) (A) (A)
                 (A) (A) (A) (A) (A) (A) (A) (A) (A) (A) (A) (A)
                 (A) (A) (A) (A) (A) (A) (A) (A) (A) (A) (A) (A)
                 (A) (A) (A) (A) (A) (A) (A) (A) (A) (A) (A) (A)
                 (A) (A) (A) (A) (A) (A) (A) (A) (A) (A) (A) (A)
                 (A) (A) (A) (A) (A) (A) (A) (A) (A) (A) (A) (A)
                 (A) (A) (A) (A) (A) (A) (A) (A) (A) (A) (A) (A)
                 (A) (A) (A) (A) (A) (A) (A) (A) (A) (A) (A) (A)
                 (A) (A) (A) (A) (A) (A) (A) (A) (A) (A) (A) (A)
                 (A) (A) (A) (A) (A) (A) (A) (A) (A) (A) (A) (A)
                 (A) (A) (A) (A) (A) (A) (A) (A) (A) (A) (A) (A)
                 (A) (A) (A) (A) (A) (A) (A) (A) (A) (A) (A) (A)
                 (A) (A) (A) (A) (A) (A) (A) (A) (A) (A) (A) (A)
                 (A) (A) (A) (A) (A) (A) (A) (A) (A) (A) (A) (A)
                 (A) (A) (A) (A) (A) (A) (A) (A) (A) (A) (A) (A)
                 (A) (A) (A) (A) (A) (A) (A) (A) (A) (A) (A) (A)
                 (A) (A) (A) (A) (A) (A) (A) (A) (A) (A) (A) (A)
                 (A) (A) (A) (A) (A) (A) (A) (A) (A) (A) (A) (A)
                 (A) (A) (A) (A) (A) (A) (A) (A) (A) (A) (A) (A)
                 (A) (A) (A) (A) (A) (A) (A) (A) (A) (A) (A) (A)
                 (A) (A) (A) (A) (A) (A) (A) (A) (A) (A) (A) (A)
                 (A) (A) (A) (A) (A) (A) (A) (A) (A) (A) (A) (A)
                 (A) (A) (A) (A) (A) (A) (A) (A) (A) (A) (A) (A)
                 (A) (A) (A) (A) (A) (A) (A) (A) (A) (A) (A) (A)
                 (A) (A) (A) (A) (A) (A) (A) (A) (A) (A) (A) (A)
                 (A) (A) (A) (A) (A) (A) (A) (A) (A) (A) (A) (A)
                 (A) (A) (A) (A) (A) (A) (A) (A) (A) (A) (A) (A)
                 (A) (A) (A) (A) (A) (A) (A) (A) (A) (A) (A) (A)
                 (A) (A) (A) (A) (A) (A) (A) (A) (A) (A) (A) (A)
                 (A) (A) (A) (A) (A) (A) (A) (A) (A) (A) (A) (A)
                 (A) (A) (A) (A) (A) (A) (A) (A) (A) (A) (A) (A)
                 (A) (A) (A) (A) (A) (A) (A) (A) (A) (A) (A) (A)
                 (A) (A) (A) (A) (A) (A) (A) (A) (A) (A) (A) (A)
                 (A) (A) (A) (A) (A) (A) (A) (A) (A) (A) (A) (A)
                 (A) (A) (A) (A) (A) (A) (A) (A) (A) (A) (A) (A)
                 (A) (A) (A) (A) (A) (A) (A) (A) (A) (A) (A) (A)
                 (A) (A) (A) (A) (A) (A) (A) (A) (A) (A) (A) (A)
                 (A) (A) (A) (A) (A) (A) (A) (A) (A) (A) (A) (A)
                 (A) (A) (A) (A) (A) (A) (A) (A) (A) (A) (A) (A)
                 (A) (A) (A) (A) (A) (A) (A) (A) (A) (A) (A) (A)
                 (A) (A) (A) (A) (A) (A) (A) (A) (A) (A) (A) (A)
                 (A) (A) (A) (A) (A) (A) (A) (A) (A) (A) (A) (A)
                 (A) (A) (A) (A) (A) (A) (A) (A) (A) (A) (A) (A)
                 (A) (A) (A) (A) (A) (A) (A) (A) (A) (A) (A) (A)
                 (A) (A) (A) (A) (A) (A) (A) (A) (A) (A) (A) (A)
                 (A) (A) (A) (A) (A) (A) (A) (A) (A) (A) (A) (A)
                 (A) (A) (A) (A) (A) (A) (A) (A) (A) (A) (A) (A)
                 (A) (A) (A) (A) (A) (A) (A) (A) (A) (A) (A) (A)
                 (A) (A) (A) (A) (A) (A) (A) (A)
 Beta  Orbitals:
       Occupied  (A) (A) (A) (A) (A) (A) (A) (A) (A) (A) (A) (A)
                 (A) (A) (A) (A) (A) (A) (A) (A) (A) (A) (A) (A)
                 (A) (A) (A) (A) (A) (A) (A) (A) (A) (A) (A) (A)
                 (A) (A) (A) (A) (A) (A) (A) (A) (A) (A) (A) (A)
                 (A) (A) (A) (A) (A) (A) (A) (A) (A) (A) (A) (A)
                 (A) (A) (A) (A) (A) (A) (A) (A) (A) (A) (A) (A)
                 (A) (A) (A) (A) (A) (A) (A) (A) (A) (A) (A) (A)
                 (A) (A) (A) (A) (A) (A) (A) (A) (A) (A) (A) (A)
                 (A) (A) (A) (A) (A) (A) (A) (A) (A) (A) (A) (A)
                 (A) (A) (A) (A) (A) (A) (A) (A) (A) (A) (A) (A)
                 (A) (A) (A) (A) (A) (A) (A) (A) (A) (A) (A) (A)
                 (A) (A) (A) (A) (A) (A) (A) (A) (A) (A) (A) (A)
                 (A) (A) (A) (A) (A) (A) (A) (A) (A) (A) (A) (A)
                 (A) (A) (A) (A) (A) (A) (A) (A) (A) (A) (A) (A)
                 (A) (A) (A) (A) (A) (A) (A) (A) (A) (A) (A) (A)
                 (A) (A) (A) (A) (A) (A) (A)
       Virtual   (A) (A) (A) (A) (A) (A) (A) (A) (A) (A) (A) (A)
                 (A) (A) (A) (A) (A) (A) (A) (A) (A) (A) (A) (A)
                 (A) (A) (A) (A) (A) (A) (A) (A) (A) (A) (A) (A)
                 (A) (A) (A) (A) (A) (A) (A) (A) (A) (A) (A) (A)
                 (A) (A) (A) (A) (A) (A) (A) (A) (A) (A) (A) (A)
                 (A) (A) (A) (A) (A) (A) (A) (A) (A) (A) (A) (A)
                 (A) (A) (A) (A) (A) (A) (A) (A) (A) (A) (A) (A)
                 (A) (A) (A) (A) (A) (A) (A) (A) (A) (A) (A) (A)
                 (A) (A) (A) (A) (A) (A) (A) (A) (A) (A) (A) (A)
                 (A) (A) (A) (A) (A) (A) (A) (A) (A) (A) (A) (A)
                 (A) (A) (A) (A) (A) (A) (A) (A) (A) (A) (A) (A)
                 (A) (A) (A) (A) (A) (A) (A) (A) (A) (A) (A) (A)
                 (A) (A) (A) (A) (A) (A) (A) (A) (A) (A) (A) (A)
                 (A) (A) (A) (A) (A) (A) (A) (A) (A) (A) (A) (A)
                 (A) (A) (A) (A) (A) (A) (A) (A) (A) (A) (A) (A)
                 (A) (A) (A) (A) (A) (A) (A) (A) (A) (A) (A) (A)
                 (A) (A) (A) (A) (A) (A) (A) (A) (A) (A) (A) (A)
                 (A) (A) (A) (A) (A) (A) (A) (A) (A) (A) (A) (A)
                 (A) (A) (A) (A) (A) (A) (A) (A) (A) (A) (A) (A)
                 (A) (A) (A) (A) (A) (A) (A) (A) (A) (A) (A) (A)
                 (A) (A) (A) (A) (A) (A) (A) (A) (A) (A) (A) (A)
                 (A) (A) (A) (A) (A) (A) (A) (A) (A) (A) (A) (A)
                 (A) (A) (A) (A) (A) (A) (A) (A) (A) (A) (A) (A)
                 (A) (A) (A) (A) (A) (A) (A) (A) (A) (A) (A) (A)
                 (A) (A) (A) (A) (A) (A) (A) (A) (A) (A) (A) (A)
                 (A) (A) (A) (A) (A) (A) (A) (A) (A) (A) (A) (A)
                 (A) (A) (A) (A) (A) (A) (A) (A) (A) (A) (A) (A)
                 (A) (A) (A) (A) (A) (A) (A) (A) (A) (A) (A) (A)
                 (A) (A) (A) (A) (A) (A) (A) (A) (A) (A) (A) (A)
                 (A) (A) (A) (A) (A) (A) (A) (A) (A) (A) (A) (A)
                 (A) (A) (A) (A) (A) (A) (A) (A) (A) (A) (A) (A)
                 (A) (A) (A) (A) (A) (A) (A) (A) (A) (A) (A) (A)
                 (A) (A) (A) (A) (A) (A) (A) (A) (A) (A) (A) (A)
                 (A) (A) (A) (A) (A) (A) (A) (A) (A) (A) (A) (A)
                 (A) (A) (A) (A) (A) (A) (A) (A) (A) (A) (A) (A)
                 (A) (A) (A) (A) (A) (A) (A) (A) (A) (A) (A) (A)
                 (A) (A) (A) (A) (A) (A) (A) (A) (A) (A) (A) (A)
                 (A) (A) (A) (A) (A) (A) (A) (A) (A) (A) (A) (A)
                 (A) (A) (A) (A) (A) (A) (A) (A) (A) (A) (A) (A)
                 (A) (A) (A) (A) (A) (A) (A) (A) (A) (A) (A) (A)
                 (A) (A) (A) (A) (A) (A) (A) (A) (A) (A) (A) (A)
                 (A) (A) (A) (A) (A) (A) (A) (A) (A) (A) (A) (A)
                 (A) (A) (A) (A) (A) (A) (A) (A) (A) (A) (A) (A)
                 (A) (A) (A) (A) (A) (A) (A) (A) (A) (A) (A) (A)
                 (A) (A) (A) (A) (A) (A) (A) (A) (A) (A) (A) (A)
                 (A) (A) (A) (A) (A) (A) (A) (A) (A) (A) (A) (A)
                 (A) (A) (A) (A) (A) (A) (A) (A) (A) (A) (A) (A)
                 (A) (A) (A) (A) (A) (A) (A) (A) (A) (A) (A) (A)
                 (A) (A) (A) (A) (A) (A) (A) (A) (A) (A) (A) (A)
                 (A) (A) (A) (A) (A) (A) (A) (A) (A) (A) (A) (A)
                 (A) (A) (A) (A) (A) (A) (A) (A) (A) (A) (A) (A)
                 (A) (A) (A) (A) (A) (A) (A) (A) (A) (A) (A) (A)
                 (A) (A) (A) (A) (A) (A) (A) (A) (A) (A) (A) (A)
                 (A) (A) (A) (A) (A) (A) (A) (A) (A) (A) (A) (A)
                 (A) (A) (A) (A) (A) (A) (A) (A) (A) (A) (A) (A)
                 (A) (A) (A) (A) (A) (A) (A) (A) (A) (A) (A) (A)
                 (A) (A) (A) (A) (A) (A) (A) (A) (A) (A) (A) (A)
                 (A) (A) (A) (A) (A) (A) (A) (A) (A) (A) (A) (A)
                 (A) (A) (A) (A) (A) (A) (A) (A) (A) (A) (A) (A)
                 (A) (A) (A) (A) (A) (A) (A) (A) (A) (A) (A) (A)
                 (A) (A) (A) (A) (A) (A) (A) (A) (A) (A) (A) (A)
                 (A) (A) (A) (A) (A) (A) (A) (A) (A) (A) (A) (A)
                 (A) (A) (A) (A) (A) (A) (A) (A) (A) (A) (A) (A)
                 (A) (A) (A) (A) (A) (A) (A) (A) (A) (A) (A) (A)
                 (A) (A) (A) (A) (A) (A) (A) (A) (A) (A) (A) (A)
                 (A) (A) (A) (A) (A) (A) (A) (A) (A) (A) (A) (A)
                 (A) (A) (A) (A) (A) (A) (A) (A) (A) (A) (A) (A)
                 (A) (A) (A) (A) (A) (A) (A) (A) (A) (A) (A) (A)
                 (A) (A) (A) (A) (A) (A) (A) (A) (A) (A) (A) (A)
                 (A) (A) (A) (A) (A) (A) (A) (A) (A) (A) (A) (A)
                 (A) (A) (A) (A) (A) (A) (A) (A) (A) (A) (A) (A)
                 (A) (A) (A) (A) (A) (A) (A) (A) (A) (A) (A) (A)
                 (A) (A) (A) (A) (A) (A) (A) (A) (A) (A) (A) (A)
                 (A) (A) (A) (A) (A) (A) (A) (A) (A) (A) (A) (A)
                 (A) (A) (A) (A) (A) (A) (A) (A) (A) (A) (A) (A)
                 (A) (A) (A) (A) (A) (A) (A) (A) (A) (A) (A) (A)
                 (A) (A) (A) (A) (A) (A) (A) (A) (A) (A) (A) (A)
                 (A) (A) (A) (A) (A) (A) (A) (A) (A) (A) (A) (A)
                 (A) (A) (A) (A) (A) (A) (A) (A) (A) (A) (A) (A)
                 (A) (A) (A) (A) (A) (A) (A) (A) (A) (A) (A) (A)
                 (A) (A) (A) (A) (A) (A) (A) (A) (A) (A) (A) (A)
                 (A) (A) (A) (A) (A) (A) (A) (A) (A) (A) (A) (A)
                 (A) (A) (A) (A) (A) (A) (A) (A) (A) (A) (A) (A)
                 (A) (A) (A) (A) (A) (A) (A) (A) (A) (A) (A) (A)
                 (A) (A) (A) (A) (A) (A) (A) (A) (A) (A) (A) (A)
                 (A) (A) (A) (A) (A) (A) (A) (A) (A) (A) (A) (A)
                 (A) (A) (A) (A) (A) (A) (A) (A) (A) (A) (A) (A)
                 (A) (A) (A) (A) (A) (A) (A) (A) (A) (A) (A) (A)
                 (A) (A) (A) (A) (A) (A) (A) (A) (A) (A) (A) (A)
                 (A) (A) (A) (A) (A) (A) (A) (A) (A) (A) (A) (A)
                 (A) (A) (A) (A) (A) (A) (A) (A) (A) (A) (A) (A)
                 (A) (A) (A) (A) (A) (A) (A) (A) (A) (A) (A) (A)
                 (A) (A) (A) (A) (A) (A) (A) (A) (A) (A) (A) (A)
                 (A) (A) (A) (A) (A) (A) (A) (A) (A) (A) (A) (A)
                 (A) (A) (A) (A) (A) (A) (A) (A) (A) (A) (A) (A)
                 (A) (A) (A) (A) (A) (A) (A) (A) (A) (A) (A) (A)
                 (A) (A) (A) (A) (A) (A) (A) (A) (A) (A) (A) (A)
                 (A) (A) (A) (A) (A) (A) (A) (A) (A) (A) (A) (A)
                 (A) (A) (A) (A) (A) (A) (A) (A) (A) (A) (A) (A)
                 (A) (A) (A) (A) (A) (A) (A) (A) (A) (A) (A) (A)
                 (A) (A) (A) (A) (A) (A) (A) (A) (A) (A) (A) (A)
                 (A) (A) (A) (A) (A) (A) (A) (A) (A) (A) (A) (A)
                 (A) (A) (A) (A) (A) (A) (A) (A) (A) (A) (A) (A)
                 (A) (A) (A) (A) (A) (A) (A) (A) (A) (A) (A) (A)
                 (A) (A) (A) (A) (A) (A) (A) (A) (A) (A) (A) (A)
                 (A) (A) (A) (A) (A) (A) (A) (A) (A) (A) (A) (A)
                 (A) (A) (A) (A) (A) (A) (A) (A) (A) (A) (A) (A)
                 (A) (A) (A) (A) (A) (A) (A) (A) (A) (A) (A) (A)
                 (A) (A) (A) (A) (A) (A) (A) (A) (A) (A) (A) (A)
                 (A) (A) (A) (A) (A) (A) (A) (A) (A) (A) (A) (A)
                 (A) (A) (A) (A) (A) (A) (A) (A) (A) (A) (A) (A)
                 (A) (A) (A) (A) (A) (A) (A) (A) (A) (A) (A) (A)
                 (A) (A) (A) (A) (A) (A) (A) (A) (A) (A) (A) (A)
                 (A) (A) (A) (A) (A) (A) (A) (A) (A) (A) (A) (A)
                 (A) (A) (A) (A) (A) (A) (A) (A) (A) (A) (A) (A)
                 (A) (A) (A) (A) (A) (A) (A) (A) (A) (A) (A) (A)
                 (A) (A) (A) (A) (A) (A) (A) (A) (A) (A) (A) (A)
                 (A) (A) (A) (A) (A) (A) (A) (A) (A) (A) (A) (A)
                 (A) (A) (A) (A) (A) (A) (A) (A) (A) (A) (A) (A)
                 (A) (A) (A) (A) (A) (A) (A) (A) (A) (A) (A) (A)
                 (A) (A) (A) (A) (A) (A) (A) (A) (A) (A) (A) (A)
                 (A) (A) (A) (A) (A) (A) (A) (A) (A) (A) (A) (A)
                 (A) (A) (A) (A) (A) (A) (A) (A) (A) (A) (A) (A)
                 (A) (A) (A) (A) (A) (A) (A) (A) (A) (A) (A) (A)
                 (A) (A) (A) (A) (A) (A) (A) (A) (A) (A) (A) (A)
                 (A) (A) (A) (A) (A) (A) (A) (A) (A) (A) (A) (A)
                 (A) (A) (A) (A) (A) (A) (A) (A) (A) (A) (A) (A)
                 (A) (A) (A) (A) (A) (A) (A) (A) (A) (A) (A) (A)
                 (A) (A) (A) (A) (A) (A) (A) (A) (A) (A) (A) (A)
                 (A) (A) (A) (A) (A) (A) (A) (A) (A) (A) (A) (A)
                 (A) (A) (A) (A) (A) (A) (A) (A) (A) (A) (A) (A)
                 (A) (A) (A) (A) (A) (A) (A) (A) (A) (A) (A) (A)
                 (A) (A) (A) (A) (A) (A) (A) (A) (A) (A) (A) (A)
                 (A) (A) (A) (A) (A) (A) (A) (A) (A) (A) (A) (A)
                 (A) (A) (A) (A) (A) (A) (A) (A) (A)
 The electronic state is 2-A.
 Alpha  occ. eigenvalues -- -256.43875 -30.22560 -26.05306 -26.05152 -26.03935
 Alpha  occ. eigenvalues --  -19.35532 -19.33024 -19.27567 -19.25114 -19.24736
 Alpha  occ. eigenvalues --  -14.51616 -14.49874 -14.48131 -14.48115 -14.47615
 Alpha  occ. eigenvalues --  -14.45312 -10.43303 -10.42526 -10.40222 -10.36780
 Alpha  occ. eigenvalues --  -10.36710 -10.36222 -10.36056 -10.36044 -10.35910
 Alpha  occ. eigenvalues --  -10.35795 -10.35538 -10.35347 -10.35226 -10.34991
 Alpha  occ. eigenvalues --  -10.33476 -10.33325 -10.32810 -10.32744 -10.32661
 Alpha  occ. eigenvalues --  -10.32633 -10.32530 -10.32524 -10.32517 -10.32471
 Alpha  occ. eigenvalues --  -10.32430 -10.32409 -10.32378 -10.32313 -10.32155
 Alpha  occ. eigenvalues --  -10.31815 -10.31715 -10.31615 -10.30867 -10.30785
 Alpha  occ. eigenvalues --  -10.30744 -10.29959 -10.29647 -10.29636  -3.61394
 Alpha  occ. eigenvalues --   -2.39692  -2.37694  -2.34694  -1.25695  -1.23835
 Alpha  occ. eigenvalues --   -1.13621  -1.12454  -1.10159  -1.09089  -1.08820
 Alpha  occ. eigenvalues --   -1.08397  -1.07995  -1.06988  -0.97745  -0.96120
 Alpha  occ. eigenvalues --   -0.94784  -0.93446  -0.93370  -0.92588  -0.92367
 Alpha  occ. eigenvalues --   -0.91623  -0.89906  -0.88501  -0.88427  -0.88030
 Alpha  occ. eigenvalues --   -0.86722  -0.86430  -0.84604  -0.83132  -0.82318
 Alpha  occ. eigenvalues --   -0.81591  -0.79822  -0.79664  -0.78588  -0.78292
 Alpha  occ. eigenvalues --   -0.77054  -0.76418  -0.75712  -0.74396  -0.73230
 Alpha  occ. eigenvalues --   -0.71507  -0.70439  -0.70335  -0.69537  -0.68761
 Alpha  occ. eigenvalues --   -0.67084  -0.66779  -0.66304  -0.65668  -0.64638
 Alpha  occ. eigenvalues --   -0.63662  -0.63125  -0.62919  -0.62837  -0.61697
 Alpha  occ. eigenvalues --   -0.60744  -0.60292  -0.59431  -0.59032  -0.58467
 Alpha  occ. eigenvalues --   -0.57940  -0.57772  -0.57277  -0.57018  -0.56233
 Alpha  occ. eigenvalues --   -0.56116  -0.55853  -0.55354  -0.55200  -0.55024
 Alpha  occ. eigenvalues --   -0.54838  -0.54565  -0.54448  -0.54371  -0.54013
 Alpha  occ. eigenvalues --   -0.53663  -0.53232  -0.52889  -0.52311  -0.52088
 Alpha  occ. eigenvalues --   -0.52016  -0.51738  -0.51641  -0.51487  -0.51224
 Alpha  occ. eigenvalues --   -0.50921  -0.50608  -0.50447  -0.50373  -0.50315
 Alpha  occ. eigenvalues --   -0.49903  -0.49650  -0.49251  -0.49142  -0.48990
 Alpha  occ. eigenvalues --   -0.48642  -0.48510  -0.48215  -0.48130  -0.47778
 Alpha  occ. eigenvalues --   -0.47516  -0.47069  -0.46672  -0.46161  -0.45988
 Alpha  occ. eigenvalues --   -0.45411  -0.45087  -0.44021  -0.43675  -0.43577
 Alpha  occ. eigenvalues --   -0.43055  -0.42355  -0.42019  -0.41502  -0.40430
 Alpha  occ. eigenvalues --   -0.39749  -0.39719  -0.39417  -0.38960  -0.38565
 Alpha  occ. eigenvalues --   -0.37748  -0.36866  -0.36326  -0.36059  -0.34928
 Alpha  occ. eigenvalues --   -0.34747  -0.33303  -0.33135  -0.31966  -0.31793
 Alpha  occ. eigenvalues --   -0.31432  -0.30277  -0.29917
 Alpha virt. eigenvalues --   -0.23792  -0.17464  -0.17297  -0.17003  -0.12196
 Alpha virt. eigenvalues --   -0.11046  -0.10389  -0.08824  -0.08037  -0.07384
 Alpha virt. eigenvalues --   -0.05482  -0.05331  -0.04899  -0.04293  -0.03893
 Alpha virt. eigenvalues --   -0.03536  -0.03317  -0.02973  -0.02786  -0.02241
 Alpha virt. eigenvalues --   -0.02148  -0.01620  -0.01505  -0.01116  -0.00957
 Alpha virt. eigenvalues --   -0.00354  -0.00228   0.00545   0.00665   0.00989
 Alpha virt. eigenvalues --    0.01304   0.01474   0.01713   0.01844   0.01981
 Alpha virt. eigenvalues --    0.02403   0.02514   0.03160   0.03310   0.03714
 Alpha virt. eigenvalues --    0.03795   0.04128   0.04261   0.04622   0.04644
 Alpha virt. eigenvalues --    0.04769   0.04980   0.05119   0.05381   0.05660
 Alpha virt. eigenvalues --    0.05748   0.05812   0.06251   0.06267   0.06606
 Alpha virt. eigenvalues --    0.06706   0.06941   0.07026   0.07484   0.07630
 Alpha virt. eigenvalues --    0.07879   0.08069   0.08375   0.08520   0.08668
 Alpha virt. eigenvalues --    0.08966   0.09318   0.09364   0.09629   0.09824
 Alpha virt. eigenvalues --    0.09912   0.10349   0.10441   0.10839   0.11143
 Alpha virt. eigenvalues --    0.11440   0.11656   0.11754   0.11994   0.12232
 Alpha virt. eigenvalues --    0.12594   0.12673   0.12792   0.12975   0.13211
 Alpha virt. eigenvalues --    0.13694   0.13805   0.13925   0.14309   0.14638
 Alpha virt. eigenvalues --    0.14865   0.15041   0.15153   0.15364   0.15994
 Alpha virt. eigenvalues --    0.16283   0.16402   0.16506   0.16740   0.16808
 Alpha virt. eigenvalues --    0.16993   0.17369   0.17613   0.17899   0.18052
 Alpha virt. eigenvalues --    0.18181   0.18409   0.18533   0.18823   0.18905
 Alpha virt. eigenvalues --    0.19058   0.19457   0.19653   0.19774   0.20040
 Alpha virt. eigenvalues --    0.20102   0.20726   0.20799   0.20937   0.21250
 Alpha virt. eigenvalues --    0.21394   0.21784   0.21921   0.22184   0.22510
 Alpha virt. eigenvalues --    0.22749   0.22896   0.23143   0.23389   0.23622
 Alpha virt. eigenvalues --    0.23945   0.24043   0.24493   0.24597   0.24925
 Alpha virt. eigenvalues --    0.25169   0.25419   0.25635   0.25860   0.26038
 Alpha virt. eigenvalues --    0.26392   0.26621   0.26767   0.27045   0.27152
 Alpha virt. eigenvalues --    0.27437   0.28052   0.28181   0.28416   0.28685
 Alpha virt. eigenvalues --    0.28905   0.29024   0.29244   0.29306   0.29559
 Alpha virt. eigenvalues --    0.29720   0.30067   0.30360   0.30576   0.30754
 Alpha virt. eigenvalues --    0.31117   0.31192   0.31302   0.31546   0.31671
 Alpha virt. eigenvalues --    0.31783   0.32069   0.32496   0.32702   0.32893
 Alpha virt. eigenvalues --    0.33016   0.33138   0.33310   0.33403   0.33602
 Alpha virt. eigenvalues --    0.33771   0.34086   0.34367   0.34675   0.34839
 Alpha virt. eigenvalues --    0.35006   0.35041   0.35256   0.35477   0.35850
 Alpha virt. eigenvalues --    0.36123   0.36226   0.36472   0.36663   0.36820
 Alpha virt. eigenvalues --    0.37049   0.37304   0.37402   0.37589   0.37748
 Alpha virt. eigenvalues --    0.37835   0.38030   0.38094   0.38273   0.38480
 Alpha virt. eigenvalues --    0.38705   0.38807   0.39001   0.39149   0.39457
 Alpha virt. eigenvalues --    0.39740   0.39963   0.40053   0.40199   0.40383
 Alpha virt. eigenvalues --    0.40612   0.40924   0.41112   0.41295   0.41339
 Alpha virt. eigenvalues --    0.41507   0.41700   0.41948   0.42009   0.42318
 Alpha virt. eigenvalues --    0.42500   0.42649   0.42875   0.43303   0.43425
 Alpha virt. eigenvalues --    0.43780   0.43931   0.44179   0.44453   0.44662
 Alpha virt. eigenvalues --    0.44700   0.45063   0.45102   0.45401   0.45436
 Alpha virt. eigenvalues --    0.45588   0.45973   0.46165   0.46695   0.46897
 Alpha virt. eigenvalues --    0.47100   0.47373   0.47456   0.47652   0.48091
 Alpha virt. eigenvalues --    0.48215   0.48527   0.48885   0.49035   0.49177
 Alpha virt. eigenvalues --    0.49513   0.49802   0.49998   0.50132   0.50314
 Alpha virt. eigenvalues --    0.50792   0.50896   0.50986   0.51198   0.51612
 Alpha virt. eigenvalues --    0.51947   0.52072   0.52200   0.52563   0.52777
 Alpha virt. eigenvalues --    0.52986   0.53277   0.53530   0.53803   0.53965
 Alpha virt. eigenvalues --    0.54177   0.54343   0.54415   0.54639   0.54998
 Alpha virt. eigenvalues --    0.55187   0.55431   0.55695   0.55882   0.56262
 Alpha virt. eigenvalues --    0.56423   0.56527   0.56927   0.57250   0.57322
 Alpha virt. eigenvalues --    0.57601   0.57924   0.58108   0.58337   0.58421
 Alpha virt. eigenvalues --    0.58553   0.58952   0.59344   0.59598   0.59786
 Alpha virt. eigenvalues --    0.60060   0.60356   0.60712   0.61002   0.61437
 Alpha virt. eigenvalues --    0.61661   0.61897   0.62171   0.62702   0.62808
 Alpha virt. eigenvalues --    0.63210   0.63468   0.63860   0.64138   0.64242
 Alpha virt. eigenvalues --    0.64692   0.64914   0.65229   0.65631   0.65987
 Alpha virt. eigenvalues --    0.66106   0.66282   0.66751   0.66879   0.67365
 Alpha virt. eigenvalues --    0.67525   0.67697   0.68259   0.68397   0.68885
 Alpha virt. eigenvalues --    0.68988   0.69198   0.69829   0.70463   0.70744
 Alpha virt. eigenvalues --    0.71081   0.71357   0.71678   0.71953   0.72278
 Alpha virt. eigenvalues --    0.72460   0.72609   0.73193   0.73355   0.73403
 Alpha virt. eigenvalues --    0.73796   0.74269   0.74351   0.74657   0.75123
 Alpha virt. eigenvalues --    0.75172   0.75691   0.76168   0.76283   0.76650
 Alpha virt. eigenvalues --    0.76713   0.77224   0.77478   0.77799   0.78463
 Alpha virt. eigenvalues --    0.78729   0.78865   0.79302   0.79375   0.79631
 Alpha virt. eigenvalues --    0.79838   0.80168   0.80365   0.81098   0.81585
 Alpha virt. eigenvalues --    0.81772   0.81977   0.82339   0.82666   0.82918
 Alpha virt. eigenvalues --    0.83204   0.83681   0.83984   0.84121   0.84555
 Alpha virt. eigenvalues --    0.84718   0.84981   0.85138   0.85316   0.86006
 Alpha virt. eigenvalues --    0.86221   0.86383   0.86681   0.86843   0.87203
 Alpha virt. eigenvalues --    0.87360   0.87626   0.87765   0.88455   0.88606
 Alpha virt. eigenvalues --    0.88837   0.89084   0.89343   0.89566   0.89773
 Alpha virt. eigenvalues --    0.89855   0.90043   0.90437   0.90975   0.91072
 Alpha virt. eigenvalues --    0.91498   0.92036   0.92168   0.92503   0.92643
 Alpha virt. eigenvalues --    0.92986   0.93317   0.93442   0.93613   0.93992
 Alpha virt. eigenvalues --    0.94370   0.94808   0.94888   0.95291   0.95550
 Alpha virt. eigenvalues --    0.95945   0.96036   0.96360   0.96975   0.97508
 Alpha virt. eigenvalues --    0.97851   0.98141   0.98483   0.98565   0.99128
 Alpha virt. eigenvalues --    0.99449   0.99584   1.00183   1.00432   1.00941
 Alpha virt. eigenvalues --    1.01146   1.01371   1.01849   1.01937   1.02099
 Alpha virt. eigenvalues --    1.02443   1.02904   1.03502   1.03909   1.04277
 Alpha virt. eigenvalues --    1.04657   1.04871   1.05129   1.05927   1.06091
 Alpha virt. eigenvalues --    1.06484   1.07009   1.07156   1.07817   1.08020
 Alpha virt. eigenvalues --    1.08464   1.08996   1.09726   1.09980   1.10189
 Alpha virt. eigenvalues --    1.10340   1.10931   1.11291   1.11339   1.11826
 Alpha virt. eigenvalues --    1.12044   1.12759   1.13066   1.13339   1.13623
 Alpha virt. eigenvalues --    1.14026   1.14809   1.15089   1.15310   1.15625
 Alpha virt. eigenvalues --    1.16190   1.16297   1.16625   1.16706   1.17178
 Alpha virt. eigenvalues --    1.17495   1.17753   1.17919   1.18327   1.18697
 Alpha virt. eigenvalues --    1.18765   1.19739   1.19877   1.20164   1.20726
 Alpha virt. eigenvalues --    1.20923   1.21473   1.21485   1.21655   1.22145
 Alpha virt. eigenvalues --    1.22712   1.22880   1.24012   1.24174   1.24809
 Alpha virt. eigenvalues --    1.24926   1.25243   1.25679   1.26058   1.26538
 Alpha virt. eigenvalues --    1.26967   1.27168   1.28131   1.28338   1.28880
 Alpha virt. eigenvalues --    1.29054   1.29328   1.29686   1.29982   1.30737
 Alpha virt. eigenvalues --    1.31442   1.31749   1.32392   1.32812   1.33128
 Alpha virt. eigenvalues --    1.33430   1.33777   1.34161   1.34922   1.35392
 Alpha virt. eigenvalues --    1.35901   1.36129   1.36342   1.36737   1.36982
 Alpha virt. eigenvalues --    1.37410   1.37749   1.38050   1.38304   1.38759
 Alpha virt. eigenvalues --    1.38926   1.39253   1.39839   1.39949   1.40420
 Alpha virt. eigenvalues --    1.40774   1.40917   1.41136   1.41623   1.41890
 Alpha virt. eigenvalues --    1.42102   1.42439   1.42614   1.42703   1.43087
 Alpha virt. eigenvalues --    1.44102   1.44345   1.44579   1.45193   1.45343
 Alpha virt. eigenvalues --    1.45699   1.45855   1.45983   1.46260   1.46678
 Alpha virt. eigenvalues --    1.46803   1.46909   1.47394   1.47446   1.47859
 Alpha virt. eigenvalues --    1.48021   1.48346   1.48834   1.48895   1.49075
 Alpha virt. eigenvalues --    1.49356   1.49543   1.50032   1.50197   1.50333
 Alpha virt. eigenvalues --    1.50943   1.51231   1.51345   1.51825   1.51941
 Alpha virt. eigenvalues --    1.52068   1.52440   1.52534   1.52949   1.53385
 Alpha virt. eigenvalues --    1.53558   1.53919   1.54367   1.54658   1.54707
 Alpha virt. eigenvalues --    1.55156   1.55512   1.55595   1.55937   1.56196
 Alpha virt. eigenvalues --    1.56395   1.56586   1.56743   1.56965   1.57453
 Alpha virt. eigenvalues --    1.57623   1.58243   1.58525   1.58823   1.59002
 Alpha virt. eigenvalues --    1.59370   1.59805   1.60095   1.60202   1.61004
 Alpha virt. eigenvalues --    1.61430   1.61733   1.62049   1.62073   1.62504
 Alpha virt. eigenvalues --    1.62826   1.63050   1.63162   1.63470   1.63604
 Alpha virt. eigenvalues --    1.64241   1.64243   1.65037   1.65060   1.65338
 Alpha virt. eigenvalues --    1.65419   1.65818   1.66381   1.66554   1.66948
 Alpha virt. eigenvalues --    1.67384   1.67461   1.67919   1.68025   1.68747
 Alpha virt. eigenvalues --    1.69198   1.69531   1.69952   1.70407   1.70529
 Alpha virt. eigenvalues --    1.71074   1.71407   1.72102   1.72708   1.72965
 Alpha virt. eigenvalues --    1.73677   1.74043   1.74601   1.74676   1.75126
 Alpha virt. eigenvalues --    1.75616   1.75824   1.76325   1.76634   1.77096
 Alpha virt. eigenvalues --    1.77600   1.77877   1.78025   1.78185   1.78737
 Alpha virt. eigenvalues --    1.79117   1.79204   1.79668   1.80233   1.80501
 Alpha virt. eigenvalues --    1.81117   1.81212   1.81250   1.82088   1.82418
 Alpha virt. eigenvalues --    1.82513   1.82867   1.83397   1.83633   1.83906
 Alpha virt. eigenvalues --    1.84670   1.84999   1.85221   1.85829   1.86338
 Alpha virt. eigenvalues --    1.86518   1.86561   1.87237   1.87498   1.88071
 Alpha virt. eigenvalues --    1.88529   1.88645   1.89131   1.89298   1.89711
 Alpha virt. eigenvalues --    1.89890   1.90618   1.90627   1.90970   1.91198
 Alpha virt. eigenvalues --    1.91727   1.92181   1.92342   1.92569   1.92650
 Alpha virt. eigenvalues --    1.93396   1.93616   1.93888   1.94821   1.95274
 Alpha virt. eigenvalues --    1.95891   1.96083   1.96558   1.96979   1.97589
 Alpha virt. eigenvalues --    1.97738   1.98208   1.98449   1.98641   1.98792
 Alpha virt. eigenvalues --    1.99090   1.99938   1.99974   2.00395   2.00928
 Alpha virt. eigenvalues --    2.01684   2.01761   2.01877   2.02408   2.02854
 Alpha virt. eigenvalues --    2.03260   2.03463   2.03921   2.04507   2.04700
 Alpha virt. eigenvalues --    2.05308   2.05701   2.06060   2.06441   2.07000
 Alpha virt. eigenvalues --    2.07347   2.07392   2.07962   2.08239   2.08721
 Alpha virt. eigenvalues --    2.08930   2.09653   2.09778   2.10227   2.10559
 Alpha virt. eigenvalues --    2.10987   2.11627   2.11834   2.11964   2.12667
 Alpha virt. eigenvalues --    2.13015   2.13298   2.13704   2.13949   2.14173
 Alpha virt. eigenvalues --    2.14758   2.15030   2.15342   2.15543   2.16415
 Alpha virt. eigenvalues --    2.16502   2.16882   2.17202   2.17797   2.17979
 Alpha virt. eigenvalues --    2.18374   2.18687   2.19330   2.19630   2.19767
 Alpha virt. eigenvalues --    2.20019   2.20494   2.21354   2.21481   2.21787
 Alpha virt. eigenvalues --    2.22102   2.23051   2.23155   2.23946   2.24261
 Alpha virt. eigenvalues --    2.24748   2.25125   2.25804   2.26227   2.26451
 Alpha virt. eigenvalues --    2.26649   2.26976   2.27423   2.27795   2.28108
 Alpha virt. eigenvalues --    2.28802   2.29308   2.29887   2.29916   2.30173
 Alpha virt. eigenvalues --    2.30763   2.31034   2.31418   2.31539   2.31789
 Alpha virt. eigenvalues --    2.32510   2.32567   2.33565   2.33676   2.33841
 Alpha virt. eigenvalues --    2.34395   2.34417   2.34769   2.34957   2.35625
 Alpha virt. eigenvalues --    2.36027   2.36690   2.37159   2.37274   2.37618
 Alpha virt. eigenvalues --    2.38230   2.38414   2.39258   2.39344   2.39471
 Alpha virt. eigenvalues --    2.39866   2.40138   2.40535   2.41189   2.41487
 Alpha virt. eigenvalues --    2.42281   2.42915   2.43426   2.43935   2.44414
 Alpha virt. eigenvalues --    2.44711   2.44844   2.45473   2.45784   2.46075
 Alpha virt. eigenvalues --    2.46323   2.46791   2.47019   2.47695   2.47851
 Alpha virt. eigenvalues --    2.47960   2.48065   2.48553   2.48654   2.48779
 Alpha virt. eigenvalues --    2.49129   2.49364   2.49893   2.50105   2.50277
 Alpha virt. eigenvalues --    2.50895   2.51202   2.51367   2.51982   2.52306
 Alpha virt. eigenvalues --    2.52500   2.52692   2.53263   2.53437   2.54029
 Alpha virt. eigenvalues --    2.54166   2.54287   2.54925   2.55065   2.55593
 Alpha virt. eigenvalues --    2.55973   2.56331   2.56683   2.57096   2.57310
 Alpha virt. eigenvalues --    2.57722   2.58078   2.58348   2.58567   2.59113
 Alpha virt. eigenvalues --    2.59256   2.59864   2.60356   2.60443   2.60741
 Alpha virt. eigenvalues --    2.61001   2.61207   2.61969   2.62537   2.62704
 Alpha virt. eigenvalues --    2.63340   2.63671   2.64098   2.64236   2.64538
 Alpha virt. eigenvalues --    2.64970   2.65356   2.65726   2.66207   2.66513
 Alpha virt. eigenvalues --    2.66660   2.67161   2.67258   2.67688   2.67931
 Alpha virt. eigenvalues --    2.68427   2.68948   2.69047   2.69119   2.69675
 Alpha virt. eigenvalues --    2.70255   2.70462   2.70936   2.71088   2.71119
 Alpha virt. eigenvalues --    2.71675   2.71931   2.72204   2.72339   2.72701
 Alpha virt. eigenvalues --    2.73719   2.73939   2.74301   2.74591   2.74911
 Alpha virt. eigenvalues --    2.75374   2.75449   2.75755   2.76175   2.76600
 Alpha virt. eigenvalues --    2.77063   2.77304   2.77541   2.77799   2.78194
 Alpha virt. eigenvalues --    2.78467   2.78751   2.78886   2.79562   2.79938
 Alpha virt. eigenvalues --    2.80200   2.80740   2.81067   2.81300   2.81645
 Alpha virt. eigenvalues --    2.82107   2.82609   2.82851   2.83126   2.83462
 Alpha virt. eigenvalues --    2.84019   2.84077   2.84630   2.84761   2.85106
 Alpha virt. eigenvalues --    2.85553   2.85725   2.86269   2.86399   2.86755
 Alpha virt. eigenvalues --    2.87063   2.87340   2.87429   2.87612   2.87895
 Alpha virt. eigenvalues --    2.88098   2.88585   2.88803   2.88906   2.89372
 Alpha virt. eigenvalues --    2.89644   2.89990   2.90265   2.90285   2.90648
 Alpha virt. eigenvalues --    2.91399   2.91642   2.92100   2.92205   2.92394
 Alpha virt. eigenvalues --    2.92887   2.93258   2.93554   2.93824   2.94494
 Alpha virt. eigenvalues --    2.94784   2.94979   2.95704   2.95805   2.96371
 Alpha virt. eigenvalues --    2.96426   2.96684   2.97024   2.97622   2.97976
 Alpha virt. eigenvalues --    2.98162   2.98259   2.98738   2.98798   2.99240
 Alpha virt. eigenvalues --    2.99444   2.99901   3.00336   3.00389   3.00548
 Alpha virt. eigenvalues --    3.00986   3.01297   3.01514   3.01724   3.02289
 Alpha virt. eigenvalues --    3.02497   3.02699   3.02917   3.03234   3.03774
 Alpha virt. eigenvalues --    3.04047   3.04433   3.04759   3.04866   3.05131
 Alpha virt. eigenvalues --    3.05473   3.05860   3.06144   3.06235   3.06647
 Alpha virt. eigenvalues --    3.07095   3.07283   3.07693   3.07937   3.08278
 Alpha virt. eigenvalues --    3.08529   3.08782   3.08847   3.09225   3.09372
 Alpha virt. eigenvalues --    3.09562   3.10142   3.10192   3.10326   3.10476
 Alpha virt. eigenvalues --    3.11373   3.11635   3.11720   3.12200   3.12478
 Alpha virt. eigenvalues --    3.12822   3.13154   3.13343   3.13664   3.14042
 Alpha virt. eigenvalues --    3.14188   3.14552   3.14656   3.15015   3.15527
 Alpha virt. eigenvalues --    3.15905   3.15991   3.16352   3.16521   3.16895
 Alpha virt. eigenvalues --    3.17243   3.17478   3.17650   3.17712   3.17917
 Alpha virt. eigenvalues --    3.18249   3.18358   3.18585   3.19264   3.19333
 Alpha virt. eigenvalues --    3.19660   3.19960   3.20184   3.20370   3.20531
 Alpha virt. eigenvalues --    3.20820   3.21259   3.21482   3.21510   3.21630
 Alpha virt. eigenvalues --    3.22043   3.22556   3.22726   3.23071   3.23263
 Alpha virt. eigenvalues --    3.23483   3.23755   3.23982   3.24311   3.24774
 Alpha virt. eigenvalues --    3.25089   3.25453   3.25613   3.25673   3.25882
 Alpha virt. eigenvalues --    3.26364   3.26661   3.26865   3.26988   3.27677
 Alpha virt. eigenvalues --    3.27834   3.28271   3.28478   3.28656   3.29098
 Alpha virt. eigenvalues --    3.29342   3.29470   3.29763   3.29895   3.30361
 Alpha virt. eigenvalues --    3.30522   3.30722   3.30986   3.31184   3.31257
 Alpha virt. eigenvalues --    3.32276   3.32375   3.32560   3.32618   3.32925
 Alpha virt. eigenvalues --    3.33396   3.33634   3.34017   3.34182   3.34680
 Alpha virt. eigenvalues --    3.34891   3.35239   3.35740   3.35822   3.36238
 Alpha virt. eigenvalues --    3.36822   3.37094   3.37564   3.37947   3.38107
 Alpha virt. eigenvalues --    3.38532   3.38774   3.38975   3.39287   3.39756
 Alpha virt. eigenvalues --    3.40229   3.40550   3.40783   3.41086   3.41451
 Alpha virt. eigenvalues --    3.41898   3.42441   3.42608   3.42744   3.43117
 Alpha virt. eigenvalues --    3.43507   3.43900   3.44357   3.44640   3.45258
 Alpha virt. eigenvalues --    3.45528   3.45858   3.46103   3.46379   3.47084
 Alpha virt. eigenvalues --    3.47927   3.47998   3.48185   3.48378   3.48570
 Alpha virt. eigenvalues --    3.48729   3.49161   3.49776   3.50125   3.50656
 Alpha virt. eigenvalues --    3.51417   3.51674   3.52258   3.52594   3.52992
 Alpha virt. eigenvalues --    3.53258   3.53647   3.53933   3.54420   3.54564
 Alpha virt. eigenvalues --    3.55221   3.55341   3.55647   3.56297   3.56569
 Alpha virt. eigenvalues --    3.56852   3.56952   3.57509   3.57692   3.57893
 Alpha virt. eigenvalues --    3.58636   3.58988   3.59522   3.59806   3.60294
 Alpha virt. eigenvalues --    3.60383   3.60860   3.61059   3.61429   3.62328
 Alpha virt. eigenvalues --    3.62712   3.63037   3.63553   3.64071   3.64589
 Alpha virt. eigenvalues --    3.64635   3.65467   3.65757   3.65991   3.66223
 Alpha virt. eigenvalues --    3.66495   3.66847   3.67190   3.67439   3.67811
 Alpha virt. eigenvalues --    3.68113   3.68349   3.68564   3.68916   3.69306
 Alpha virt. eigenvalues --    3.70233   3.70709   3.71216   3.71505   3.72439
 Alpha virt. eigenvalues --    3.73439   3.73700   3.73951   3.74326   3.74563
 Alpha virt. eigenvalues --    3.75461   3.75896   3.76240   3.76814   3.77184
 Alpha virt. eigenvalues --    3.77553   3.78081   3.78718   3.79428   3.79807
 Alpha virt. eigenvalues --    3.80992   3.81730   3.82569   3.82732   3.83235
 Alpha virt. eigenvalues --    3.83825   3.84524   3.84883   3.85048   3.85431
 Alpha virt. eigenvalues --    3.85739   3.86365   3.86392   3.87188   3.87343
 Alpha virt. eigenvalues --    3.88323   3.88531   3.88912   3.89649   3.89880
 Alpha virt. eigenvalues --    3.90200   3.90721   3.91427   3.91863   3.92956
 Alpha virt. eigenvalues --    3.93511   3.94643   3.95204   3.95537   3.95713
 Alpha virt. eigenvalues --    3.96536   3.96698   3.97127   3.97811   3.98128
 Alpha virt. eigenvalues --    3.98365   3.99193   3.99657   4.00326   4.00971
 Alpha virt. eigenvalues --    4.01363   4.01822   4.02838   4.03160   4.03781
 Alpha virt. eigenvalues --    4.04119   4.04754   4.05075   4.05471   4.05938
 Alpha virt. eigenvalues --    4.06292   4.07106   4.07318   4.08180   4.08488
 Alpha virt. eigenvalues --    4.09078   4.09279   4.09713   4.10356   4.10532
 Alpha virt. eigenvalues --    4.11202   4.11627   4.12496   4.13166   4.13689
 Alpha virt. eigenvalues --    4.14157   4.14254   4.14652   4.15243   4.15725
 Alpha virt. eigenvalues --    4.16210   4.16660   4.16779   4.17529   4.17716
 Alpha virt. eigenvalues --    4.18254   4.19134   4.19574   4.20522   4.20629
 Alpha virt. eigenvalues --    4.21692   4.22242   4.22877   4.23931   4.24720
 Alpha virt. eigenvalues --    4.25112   4.25878   4.26849   4.27094   4.28008
 Alpha virt. eigenvalues --    4.28384   4.28746   4.29327   4.29856   4.30371
 Alpha virt. eigenvalues --    4.30849   4.31009   4.31435   4.31647   4.32126
 Alpha virt. eigenvalues --    4.32430   4.33662   4.34172   4.34535   4.35061
 Alpha virt. eigenvalues --    4.35676   4.35914   4.36228   4.36633   4.37437
 Alpha virt. eigenvalues --    4.37817   4.38431   4.39113   4.39514   4.39694
 Alpha virt. eigenvalues --    4.40581   4.40861   4.41524   4.42314   4.42730
 Alpha virt. eigenvalues --    4.42933   4.44210   4.45135   4.45891   4.47628
 Alpha virt. eigenvalues --    4.48035   4.49107   4.50029   4.50728   4.51238
 Alpha virt. eigenvalues --    4.51717   4.53183   4.53698   4.54101   4.54174
 Alpha virt. eigenvalues --    4.54652   4.56066   4.56537   4.57039   4.57415
 Alpha virt. eigenvalues --    4.58010   4.58305   4.59057   4.59838   4.60233
 Alpha virt. eigenvalues --    4.61375   4.61560   4.62120   4.62983   4.63608
 Alpha virt. eigenvalues --    4.64134   4.65063   4.65334   4.66795   4.67087
 Alpha virt. eigenvalues --    4.67511   4.67940   4.68656   4.69965   4.70492
 Alpha virt. eigenvalues --    4.70810   4.71383   4.71683   4.72274   4.73263
 Alpha virt. eigenvalues --    4.74828   4.75247   4.75708   4.76233   4.76740
 Alpha virt. eigenvalues --    4.77382   4.77752   4.78188   4.79468   4.80911
 Alpha virt. eigenvalues --    4.81187   4.81603   4.81974   4.82165   4.82553
 Alpha virt. eigenvalues --    4.82672   4.83042   4.85189   4.86086   4.86818
 Alpha virt. eigenvalues --    4.87276   4.87890   4.88961   4.89095   4.90697
 Alpha virt. eigenvalues --    4.90828   4.92903   4.93283   4.93831   4.94834
 Alpha virt. eigenvalues --    4.95376   4.95769   4.96948   4.98203   4.98546
 Alpha virt. eigenvalues --    4.98967   5.00831   5.01621   5.02684   5.03922
 Alpha virt. eigenvalues --    5.06242   5.07331   5.07766   5.09026   5.09433
 Alpha virt. eigenvalues --    5.10176   5.10600   5.10715   5.11428   5.13217
 Alpha virt. eigenvalues --    5.14128   5.14450   5.14538   5.14878   5.15096
 Alpha virt. eigenvalues --    5.15496   5.16617   5.16752   5.17318   5.17885
 Alpha virt. eigenvalues --    5.18506   5.19065   5.20178   5.20769   5.23072
 Alpha virt. eigenvalues --    5.23647   5.24844   5.26708   5.27183   5.27434
 Alpha virt. eigenvalues --    5.28463   5.28874   5.29347   5.30837   5.31487
 Alpha virt. eigenvalues --    5.33937   5.34996   5.35653   5.36528   5.36960
 Alpha virt. eigenvalues --    5.38133   5.38513   5.39038   5.39655   5.39900
 Alpha virt. eigenvalues --    5.41243   5.42674   5.44744   5.47609   5.49028
 Alpha virt. eigenvalues --    5.49306   5.49908   5.50718   5.51360   5.51702
 Alpha virt. eigenvalues --    5.52360   5.52915   5.54371   5.55930   5.55969
 Alpha virt. eigenvalues --    5.56872   5.57404   5.57502   5.57757   5.59164
 Alpha virt. eigenvalues --    5.63379   5.66246   5.68001   5.68492   5.70123
 Alpha virt. eigenvalues --    5.71003   5.71751   5.73463   5.76674   5.78030
 Alpha virt. eigenvalues --    5.80899   5.81705   5.83023   5.86309   5.88603
 Alpha virt. eigenvalues --    5.88964   5.89473   5.89776   5.91742   5.94826
 Alpha virt. eigenvalues --    5.99516   6.00172   6.01091   6.02232   6.02744
 Alpha virt. eigenvalues --    6.03833   6.04928   6.06317   6.10073   6.11106
 Alpha virt. eigenvalues --    6.13247   6.13667   6.17585   6.21945   6.22580
 Alpha virt. eigenvalues --    6.22842   6.25795   6.29480   6.30899   6.35875
 Alpha virt. eigenvalues --    6.37040   6.40404   6.41218   6.41827   6.43159
 Alpha virt. eigenvalues --    6.46786   6.46824   6.47042   6.57385   6.60522
 Alpha virt. eigenvalues --    6.64569   6.68187   6.70549   6.76015   6.80738
 Alpha virt. eigenvalues --    6.84495   6.87210   6.88907   6.95529   6.98880
 Alpha virt. eigenvalues --    7.02980   7.03515   7.06113   7.08916   7.14261
 Alpha virt. eigenvalues --    7.21006   7.22582  22.20454  22.28905  22.45000
 Alpha virt. eigenvalues --   22.46070  22.46216  22.49869  22.51711  22.52053
 Alpha virt. eigenvalues --   22.55058  22.63193  22.66899  22.67566  22.68629
 Alpha virt. eigenvalues --   22.70658  22.80804  22.84789  22.88188  22.88452
 Alpha virt. eigenvalues --   22.91128  22.97719  22.99211  23.01555  23.10751
 Alpha virt. eigenvalues --   23.14364  23.21064  23.23617  23.23867  23.30906
 Alpha virt. eigenvalues --   23.33515  23.39024  23.41098  23.46270  23.47939
 Alpha virt. eigenvalues --   23.49438  23.64519  23.69932  23.71513  23.82557
 Alpha virt. eigenvalues --   32.40992  32.67893  32.83536  32.86682  32.87596
 Alpha virt. eigenvalues --   33.04414  43.85008  43.89104  43.90370  44.02343
 Alpha virt. eigenvalues --   44.03452
  Beta  occ. eigenvalues -- -256.43806 -30.18376 -26.01983 -26.01702 -26.00175
  Beta  occ. eigenvalues --  -19.35532 -19.33024 -19.27303 -19.25115 -19.24737
  Beta  occ. eigenvalues --  -14.51609 -14.49922 -14.48195 -14.48161 -14.47671
  Beta  occ. eigenvalues --  -14.45140 -10.43303 -10.42526 -10.40056 -10.36848
  Beta  occ. eigenvalues --  -10.36751 -10.36411 -10.36070 -10.36052 -10.35930
  Beta  occ. eigenvalues --  -10.35793 -10.35463 -10.35368 -10.35265 -10.35007
  Beta  occ. eigenvalues --  -10.34992 -10.33320 -10.32790 -10.32712 -10.32660
  Beta  occ. eigenvalues --  -10.32633 -10.32548 -10.32526 -10.32521 -10.32462
  Beta  occ. eigenvalues --  -10.32441 -10.32407 -10.32379 -10.32305 -10.32149
  Beta  occ. eigenvalues --  -10.31858 -10.31716 -10.31618 -10.30867 -10.30787
  Beta  occ. eigenvalues --  -10.30738 -10.29959 -10.29645 -10.29637  -3.51117
  Beta  occ. eigenvalues --   -2.27826  -2.27181  -2.23910  -1.25695  -1.23835
  Beta  occ. eigenvalues --   -1.13554  -1.11769  -1.10237  -1.09089  -1.08821
  Beta  occ. eigenvalues --   -1.08443  -1.08050  -1.07037  -0.97601  -0.97222
  Beta  occ. eigenvalues --   -0.94815  -0.93472  -0.93383  -0.92622  -0.92450
  Beta  occ. eigenvalues --   -0.91674  -0.90719  -0.88582  -0.88482  -0.88045
  Beta  occ. eigenvalues --   -0.86772  -0.86438  -0.84994  -0.83294  -0.82332
  Beta  occ. eigenvalues --   -0.81609  -0.79892  -0.79637  -0.78601  -0.78304
  Beta  occ. eigenvalues --   -0.77212  -0.76467  -0.75866  -0.74760  -0.74274
  Beta  occ. eigenvalues --   -0.71395  -0.70517  -0.70378  -0.69509  -0.68780
  Beta  occ. eigenvalues --   -0.67204  -0.66600  -0.66181  -0.65563  -0.64575
  Beta  occ. eigenvalues --   -0.63622  -0.63153  -0.62959  -0.62861  -0.61728
  Beta  occ. eigenvalues --   -0.60953  -0.60318  -0.59529  -0.59261  -0.59031
  Beta  occ. eigenvalues --   -0.57946  -0.57925  -0.57689  -0.57098  -0.56297
  Beta  occ. eigenvalues --   -0.56196  -0.55946  -0.55559  -0.55172  -0.55028
  Beta  occ. eigenvalues --   -0.54833  -0.54552  -0.54442  -0.54355  -0.54011
  Beta  occ. eigenvalues --   -0.53635  -0.53221  -0.52887  -0.52328  -0.52106
  Beta  occ. eigenvalues --   -0.52011  -0.51762  -0.51623  -0.51588  -0.51377
  Beta  occ. eigenvalues --   -0.50936  -0.50582  -0.50532  -0.50365  -0.50204
  Beta  occ. eigenvalues --   -0.49882  -0.49669  -0.49259  -0.49117  -0.48932
  Beta  occ. eigenvalues --   -0.48550  -0.48232  -0.48110  -0.47782  -0.47640
  Beta  occ. eigenvalues --   -0.47354  -0.47014  -0.46625  -0.46082  -0.45911
  Beta  occ. eigenvalues --   -0.45392  -0.45062  -0.43752  -0.43472  -0.43158
  Beta  occ. eigenvalues --   -0.42616  -0.42157  -0.40903  -0.39831  -0.39736
  Beta  occ. eigenvalues --   -0.39684  -0.39090  -0.38842  -0.38361  -0.37840
  Beta  occ. eigenvalues --   -0.36336  -0.35332  -0.35041  -0.34995  -0.34337
  Beta  occ. eigenvalues --   -0.33552  -0.32125  -0.31692  -0.31618  -0.30309
  Beta  occ. eigenvalues --   -0.29999  -0.29412
  Beta virt. eigenvalues --   -0.23466  -0.17785  -0.17338  -0.12144  -0.11130
  Beta virt. eigenvalues --   -0.10337  -0.09199  -0.08780  -0.08021  -0.07392
  Beta virt. eigenvalues --   -0.05611  -0.05449  -0.05230  -0.04790  -0.04385
  Beta virt. eigenvalues --   -0.03721  -0.03554  -0.03081  -0.02872  -0.02565
  Beta virt. eigenvalues --   -0.02257  -0.02050  -0.01854  -0.01436  -0.01245
  Beta virt. eigenvalues --   -0.00986  -0.00399  -0.00252   0.00551   0.00680
  Beta virt. eigenvalues --    0.00955   0.01262   0.01535   0.01684   0.01822
  Beta virt. eigenvalues --    0.01968   0.02442   0.02489   0.03135   0.03345
  Beta virt. eigenvalues --    0.03615   0.03795   0.04058   0.04142   0.04600
  Beta virt. eigenvalues --    0.04630   0.04764   0.04963   0.05110   0.05391
  Beta virt. eigenvalues --    0.05645   0.05720   0.05814   0.06164   0.06249
  Beta virt. eigenvalues --    0.06534   0.06710   0.06962   0.07017   0.07483
  Beta virt. eigenvalues --    0.07640   0.07850   0.07936   0.08307   0.08395
  Beta virt. eigenvalues --    0.08586   0.08890   0.09311   0.09337   0.09625
  Beta virt. eigenvalues --    0.09769   0.09902   0.10378   0.10491   0.10785
  Beta virt. eigenvalues --    0.11309   0.11342   0.11611   0.11862   0.11985
  Beta virt. eigenvalues --    0.12172   0.12517   0.12608   0.12733   0.12918
  Beta virt. eigenvalues --    0.13285   0.13744   0.13828   0.13924   0.14322
  Beta virt. eigenvalues --    0.14705   0.14813   0.14984   0.15211   0.15375
  Beta virt. eigenvalues --    0.16004   0.16304   0.16375   0.16519   0.16735
  Beta virt. eigenvalues --    0.16842   0.16978   0.17184   0.17465   0.17718
  Beta virt. eigenvalues --    0.18023   0.18210   0.18231   0.18524   0.18624
  Beta virt. eigenvalues --    0.18884   0.18922   0.19252   0.19576   0.19762
  Beta virt. eigenvalues --    0.19965   0.20081   0.20717   0.20808   0.20898
  Beta virt. eigenvalues --    0.21274   0.21410   0.21627   0.21909   0.22067
  Beta virt. eigenvalues --    0.22550   0.22768   0.22910   0.23020   0.23403
  Beta virt. eigenvalues --    0.23589   0.23890   0.24107   0.24408   0.24568
  Beta virt. eigenvalues --    0.24927   0.25125   0.25362   0.25609   0.25730
  Beta virt. eigenvalues --    0.26019   0.26330   0.26457   0.26870   0.26974
  Beta virt. eigenvalues --    0.27186   0.27496   0.27994   0.28175   0.28473
  Beta virt. eigenvalues --    0.28607   0.28882   0.29115   0.29157   0.29363
  Beta virt. eigenvalues --    0.29572   0.29710   0.30059   0.30429   0.30574
  Beta virt. eigenvalues --    0.30768   0.31097   0.31192   0.31324   0.31482
  Beta virt. eigenvalues --    0.31674   0.31750   0.32076   0.32374   0.32693
  Beta virt. eigenvalues --    0.32863   0.33033   0.33067   0.33240   0.33336
  Beta virt. eigenvalues --    0.33519   0.33768   0.33909   0.34193   0.34367
  Beta virt. eigenvalues --    0.34671   0.34959   0.35023   0.35229   0.35419
  Beta virt. eigenvalues --    0.35802   0.35958   0.36240   0.36329   0.36642
  Beta virt. eigenvalues --    0.36746   0.36968   0.37167   0.37357   0.37551
  Beta virt. eigenvalues --    0.37691   0.37788   0.37966   0.38013   0.38217
  Beta virt. eigenvalues --    0.38456   0.38685   0.38786   0.38970   0.39154
  Beta virt. eigenvalues --    0.39262   0.39680   0.39859   0.39998   0.40222
  Beta virt. eigenvalues --    0.40326   0.40583   0.40848   0.40937   0.41298
  Beta virt. eigenvalues --    0.41343   0.41513   0.41681   0.41940   0.41972
  Beta virt. eigenvalues --    0.42297   0.42543   0.42625   0.42914   0.43309
  Beta virt. eigenvalues --    0.43427   0.43817   0.43892   0.44188   0.44501
  Beta virt. eigenvalues --    0.44595   0.44681   0.45091   0.45134   0.45430
  Beta virt. eigenvalues --    0.45459   0.45598   0.45967   0.46161   0.46693
  Beta virt. eigenvalues --    0.46906   0.47106   0.47357   0.47434   0.47669
  Beta virt. eigenvalues --    0.48099   0.48205   0.48494   0.48764   0.49049
  Beta virt. eigenvalues --    0.49174   0.49483   0.49753   0.49918   0.50184
  Beta virt. eigenvalues --    0.50328   0.50803   0.50841   0.50897   0.51194
  Beta virt. eigenvalues --    0.51518   0.51911   0.52064   0.52138   0.52558
  Beta virt. eigenvalues --    0.52725   0.52960   0.53257   0.53501   0.53766
  Beta virt. eigenvalues --    0.53831   0.54113   0.54184   0.54398   0.54681
  Beta virt. eigenvalues --    0.54967   0.55201   0.55454   0.55661   0.55762
  Beta virt. eigenvalues --    0.56213   0.56415   0.56517   0.56940   0.57001
  Beta virt. eigenvalues --    0.57281   0.57618   0.57829   0.58093   0.58250
  Beta virt. eigenvalues --    0.58369   0.58556   0.58889   0.59353   0.59476
  Beta virt. eigenvalues --    0.59598   0.60042   0.60388   0.60745   0.60992
  Beta virt. eigenvalues --    0.61410   0.61751   0.61852   0.62130   0.62609
  Beta virt. eigenvalues --    0.62730   0.63202   0.63412   0.63797   0.64142
  Beta virt. eigenvalues --    0.64218   0.64676   0.65009   0.65199   0.65661
  Beta virt. eigenvalues --    0.65939   0.66225   0.66298   0.66746   0.66880
  Beta virt. eigenvalues --    0.67360   0.67552   0.67727   0.68263   0.68439
  Beta virt. eigenvalues --    0.68827   0.69009   0.69212   0.69849   0.70488
  Beta virt. eigenvalues --    0.70791   0.71055   0.71349   0.71570   0.71980
  Beta virt. eigenvalues --    0.72289   0.72450   0.72638   0.73185   0.73272
  Beta virt. eigenvalues --    0.73404   0.73808   0.74224   0.74366   0.74604
  Beta virt. eigenvalues --    0.75094   0.75194   0.75675   0.76154   0.76386
  Beta virt. eigenvalues --    0.76667   0.76750   0.77133   0.77429   0.77869
  Beta virt. eigenvalues --    0.78449   0.78541   0.78932   0.79209   0.79456
  Beta virt. eigenvalues --    0.79636   0.79724   0.80138   0.80376   0.81136
  Beta virt. eigenvalues --    0.81480   0.81625   0.81968   0.82139   0.82667
  Beta virt. eigenvalues --    0.82999   0.83236   0.83701   0.83897   0.84045
  Beta virt. eigenvalues --    0.84550   0.84679   0.85037   0.85096   0.85288
  Beta virt. eigenvalues --    0.85829   0.86239   0.86469   0.86688   0.86779
  Beta virt. eigenvalues --    0.87055   0.87317   0.87400   0.87751   0.88436
  Beta virt. eigenvalues --    0.88531   0.88727   0.89048   0.89295   0.89412
  Beta virt. eigenvalues --    0.89787   0.89852   0.90062   0.90261   0.90952
  Beta virt. eigenvalues --    0.91003   0.91419   0.91911   0.92109   0.92519
  Beta virt. eigenvalues --    0.92637   0.93012   0.93168   0.93430   0.93597
  Beta virt. eigenvalues --    0.94027   0.94371   0.94813   0.94841   0.95333
  Beta virt. eigenvalues --    0.95603   0.95917   0.96193   0.96467   0.96998
  Beta virt. eigenvalues --    0.97600   0.97849   0.98033   0.98496   0.98577
  Beta virt. eigenvalues --    0.99047   0.99380   0.99514   1.00157   1.00433
  Beta virt. eigenvalues --    1.00991   1.01132   1.01297   1.01777   1.01855
  Beta virt. eigenvalues --    1.02007   1.02604   1.03090   1.03448   1.03749
  Beta virt. eigenvalues --    1.04298   1.04586   1.04767   1.05178   1.05750
  Beta virt. eigenvalues --    1.06100   1.06346   1.07094   1.07433   1.07857
  Beta virt. eigenvalues --    1.07929   1.08511   1.08995   1.09596   1.09960
  Beta virt. eigenvalues --    1.10164   1.10548   1.10947   1.11275   1.11474
  Beta virt. eigenvalues --    1.11770   1.12066   1.12731   1.13095   1.13272
  Beta virt. eigenvalues --    1.13660   1.14008   1.14766   1.15138   1.15365
  Beta virt. eigenvalues --    1.15682   1.16156   1.16329   1.16692   1.16766
  Beta virt. eigenvalues --    1.17210   1.17589   1.17840   1.17931   1.18389
  Beta virt. eigenvalues --    1.18767   1.18833   1.19778   1.19846   1.20270
  Beta virt. eigenvalues --    1.20728   1.20977   1.21483   1.21508   1.21725
  Beta virt. eigenvalues --    1.22130   1.22779   1.22921   1.24034   1.24188
  Beta virt. eigenvalues --    1.24764   1.24956   1.25246   1.25736   1.26051
  Beta virt. eigenvalues --    1.26592   1.26965   1.27215   1.28185   1.28361
  Beta virt. eigenvalues --    1.28874   1.29109   1.29345   1.29583   1.29961
  Beta virt. eigenvalues --    1.30704   1.31450   1.31807   1.32236   1.32586
  Beta virt. eigenvalues --    1.33093   1.33379   1.33800   1.34069   1.34616
  Beta virt. eigenvalues --    1.35294   1.35879   1.36167   1.36373   1.36544
  Beta virt. eigenvalues --    1.36988   1.37430   1.37693   1.37990   1.38207
  Beta virt. eigenvalues --    1.38729   1.38968   1.39257   1.39757   1.39977
  Beta virt. eigenvalues --    1.40240   1.40794   1.40969   1.41125   1.41625
  Beta virt. eigenvalues --    1.41745   1.42066   1.42258   1.42570   1.42730
  Beta virt. eigenvalues --    1.43131   1.44143   1.44268   1.44432   1.45217
  Beta virt. eigenvalues --    1.45392   1.45505   1.45800   1.45875   1.46123
  Beta virt. eigenvalues --    1.46484   1.46734   1.46925   1.47347   1.47390
  Beta virt. eigenvalues --    1.47811   1.47954   1.48308   1.48758   1.48850
  Beta virt. eigenvalues --    1.49025   1.49111   1.49432   1.49908   1.50098
  Beta virt. eigenvalues --    1.50134   1.50870   1.51254   1.51318   1.51761
  Beta virt. eigenvalues --    1.51892   1.52080   1.52416   1.52518   1.52887
  Beta virt. eigenvalues --    1.53402   1.53487   1.53790   1.54374   1.54552
  Beta virt. eigenvalues --    1.54665   1.54965   1.55488   1.55510   1.55948
  Beta virt. eigenvalues --    1.56193   1.56386   1.56523   1.56582   1.56914
  Beta virt. eigenvalues --    1.57236   1.57556   1.58036   1.58241   1.58737
  Beta virt. eigenvalues --    1.59061   1.59280   1.59749   1.60060   1.60173
  Beta virt. eigenvalues --    1.60917   1.61441   1.61558   1.61787   1.62048
  Beta virt. eigenvalues --    1.62427   1.62738   1.62961   1.63076   1.63456
  Beta virt. eigenvalues --    1.63591   1.64156   1.64242   1.64659   1.65067
  Beta virt. eigenvalues --    1.65314   1.65400   1.65873   1.66372   1.66560
  Beta virt. eigenvalues --    1.66923   1.67363   1.67456   1.67954   1.67994
  Beta virt. eigenvalues --    1.68812   1.69205   1.69704   1.70048   1.70490
  Beta virt. eigenvalues --    1.70580   1.71084   1.71354   1.72168   1.72813
  Beta virt. eigenvalues --    1.72842   1.73659   1.74035   1.74492   1.74668
  Beta virt. eigenvalues --    1.74974   1.75591   1.75789   1.76157   1.76592
  Beta virt. eigenvalues --    1.77113   1.77600   1.77900   1.78087   1.78125
  Beta virt. eigenvalues --    1.78679   1.79034   1.79122   1.79677   1.80266
  Beta virt. eigenvalues --    1.80501   1.81084   1.81204   1.81390   1.82090
  Beta virt. eigenvalues --    1.82390   1.82496   1.82785   1.83337   1.83654
  Beta virt. eigenvalues --    1.83888   1.84558   1.84994   1.85239   1.85910
  Beta virt. eigenvalues --    1.86347   1.86436   1.86663   1.87281   1.87495
  Beta virt. eigenvalues --    1.88110   1.88547   1.88620   1.89167   1.89279
  Beta virt. eigenvalues --    1.89649   1.89895   1.90669   1.90747   1.90937
  Beta virt. eigenvalues --    1.91223   1.91693   1.92047   1.92300   1.92505
  Beta virt. eigenvalues --    1.92688   1.93328   1.93666   1.93781   1.94731
  Beta virt. eigenvalues --    1.95342   1.95944   1.96085   1.96596   1.97033
  Beta virt. eigenvalues --    1.97595   1.97788   1.98179   1.98469   1.98654
  Beta virt. eigenvalues --    1.98847   1.99122   1.99883   2.00082   2.00411
  Beta virt. eigenvalues --    2.00946   2.01743   2.01824   2.01898   2.02382
  Beta virt. eigenvalues --    2.02850   2.03266   2.03409   2.03841   2.04516
  Beta virt. eigenvalues --    2.04706   2.05266   2.05594   2.06067   2.06392
  Beta virt. eigenvalues --    2.07002   2.07224   2.07411   2.07960   2.08245
  Beta virt. eigenvalues --    2.08680   2.08922   2.09652   2.09762   2.10261
  Beta virt. eigenvalues --    2.10541   2.11005   2.11613   2.11730   2.11926
  Beta virt. eigenvalues --    2.12580   2.12883   2.13213   2.13712   2.13857
[...]
  1636. RY*(   4) H  78                  0.00003     2.35696   
  1637. RY*(   5) H  78                  0.00001     2.94024   
  1638. RY*(   1) H  79                  0.00032     0.96927   
  1639. RY*(   2) H  79                  0.00010     1.57366   
  1640. RY*(   3) H  79                  0.00005     2.13793   
  1641. RY*(   4) H  79                  0.00002     2.57402   
  1642. RY*(   5) H  79                  0.00001     2.71682   
  1643. RY*(   1) H  80                  0.00028     1.16884   
  1644. RY*(   2) H  80                  0.00008     1.57001   
  1645. RY*(   3) H  80                  0.00005     2.20185   
  1646. RY*(   4) H  80                  0.00003     2.37306   
  1647. RY*(   5) H  80                  0.00000     3.00972   
  1648. RY*(   1) H  81                  0.00099     0.57463   
  1649. RY*(   2) H  81                  0.00011     2.10604   
  1650. RY*(   3) H  81                  0.00012     2.15763   
  1651. RY*(   4) H  81                  0.00007     2.95476   
  1652. RY*(   5) H  81                  0.00000     3.07964   
  1653. RY*(   1) H  82                  0.00032     0.98560   
  1654. RY*(   2) H  82                  0.00011     1.50459   
  1655. RY*(   3) H  82                  0.00006     2.12196   
  1656. RY*(   4) H  82                  0.00003     2.31333   
  1657. RY*(   5) H  82                  0.00001     2.96567   
  1658. RY*(   1) H  83                  0.00024     1.07983   
  1659. RY*(   2) H  83                  0.00010     1.48730   
  1660. RY*(   3) H  83                  0.00004     2.37811   
  1661. RY*(   4) H  83                  0.00004     2.14954   
  1662. RY*(   5) H  83                  0.00001     2.93654   
  1663. RY*(   1) H  84                  0.00042     1.15791   
  1664. RY*(   2) H  84                  0.00008     1.55471   
  1665. RY*(   3) H  84                  0.00006     2.22860   
  1666. RY*(   4) H  84                  0.00003     2.24071   
  1667. RY*(   5) H  84                  0.00000     3.00360   
  1668. RY*(   1) H  85                  0.00077     1.53138   
  1669. RY*(   2) H  85                  0.00007     1.81232   
  1670. RY*(   3) H  85                  0.00007     2.04951   
  1671. RY*(   4) H  85                  0.00004     2.18095   
  1672. RY*(   5) H  85                  0.00001     2.96842   
  1673. RY*(   1) H  86                  0.00037     1.22655   
  1674. RY*(   2) H  86                  0.00021     1.97435   
  1675. RY*(   3) H  86                  0.00015     1.18447   
  1676. RY*(   4) H  86                  0.00002     2.49978   
  1677. RY*(   5) H  86                  0.00002     2.66945   
  1678. RY*(   1) H  87                  0.00037     1.20133   
  1679. RY*(   2) H  87                  0.00022     1.91962   
  1680. RY*(   3) H  87                  0.00016     1.28711   
  1681. RY*(   4) H  87                  0.00002     2.42611   
  1682. RY*(   5) H  87                  0.00002     2.75347   
  1683. RY*(   1) H  88                  0.00046     1.51982   
  1684. RY*(   2) H  88                  0.00011     1.10914   
  1685. RY*(   3) H  88                  0.00006     2.48153   
  1686. RY*(   4) H  88                  0.00004     2.25813   
  1687. RY*(   5) H  88                  0.00000     2.97552   
  1688. RY*(   1) H  89                  0.00066     0.89719   
  1689. RY*(   2) H  89                  0.00012     1.83517   
  1690. RY*(   3) H  89                  0.00007     2.11676   
  1691. RY*(   4) H  89                  0.00004     2.19323   
  1692. RY*(   5) H  89                  0.00001     2.96513   
  1693. RY*(   1) H  90                  0.00036     1.29382   
  1694. RY*(   2) H  90                  0.00013     1.37033   
  1695. RY*(   3) H  90                  0.00003     2.31746   
  1696. RY*(   4) H  90                  0.00004     1.88288   
  1697. RY*(   5) H  90                  0.00000     2.92129   
  1712. BD*(   1) C   8 - C  13          0.01087     0.46815   
  1713. BD*(   1) C   8 - C  43          0.01056     0.49880   
  1714. BD*(   2) C   8 - C  43          0.18935    -0.05365  1786(v),1729(v),380(g)
                                                    1726(r),1717(r),1294(g)
                                                    175(r)
  1715. BD*(   1) C   8 - H  73          0.00837     0.33593   
  1716. BD*(   1) C   9 - C  16          0.01048     0.49366   
  1717. BD*(   2) C   9 - C  16          0.17284    -0.05140  1733(v),1751(v),1729(v)
                                                    1714(r),592(g),407(g),171(r)
  1718. BD*(   1) C   9 - C  24          0.00961     0.46099   
  1719. BD*(   1) C   9 - H  77          0.00708     0.34877   
  1720. BD*(   1) C  10 - C  27          0.01063     0.44858   
  1721. BD*(   2) C  10 - C  27          0.17052    -0.05976  1768(v),1755(v),1751(v)
                                                    432(g),878(g)
  1722. BD*(   1) C  10 - C  32          0.00967     0.45720   
  1723. BD*(   1) C  10 - H  81          0.00603     0.34569   
  1724. BD*(   1) C  11 - C  35          0.01067     0.46082   
  1725. BD*(   1) C  11 - C  40          0.01097     0.47895   
  1726. BD*(   2) C  11 - C  40          0.20092    -0.05814  1786(v),186(v),458(g)
                                                    1714(r),1216(g),175(r)
                                                    171(r)
  1727. BD*(   1) C  11 - H  72          0.00685     0.33935   
  1728. BD*(   1) N  12 - C  13          0.01330     0.38337   
  1729. BD*(   2) N  12 - C  13          0.29197    -0.09877  1714(v),1733(v),1717(v)
                                                    512(g),171(r),484(g),380(v)
                                                    513(g),176(r),172(r),1804(r)
  1730. BD*(   1) N  12 - C  16          0.01508     0.36836   
  1731. BD*(   1) C  13 - C  14          0.01728     0.37151   
  1732. BD*(   1) C  14 - C  15          0.01174     0.48944   
  1733. BD*(   2) C  14 - C  15          0.11118    -0.03460  1717(v),1729(v),1748(r)
                                                    1740(v),1738(v),1742(v)
  1734. BD*(   1) C  14 - C  18          0.01121     0.32737   
  1735. BD*(   1) C  15 - C  16          0.01580     0.41905   
  1736. BD*(   1) C  15 - C  17          0.00851     0.29952   
  1737. BD*(   1) C  17 - H  74          0.00313     0.32586   
  1738. BD*(   1) C  17 - H  75          0.00439     0.32677   
  1739. BD*(   1) C  17 - H  76          0.00292     0.32664   
  1740. BD*(   1) C  18 - C  19          0.01026     0.22600   
  1741. BD*(   1) C  18 - H  62          0.00673     0.31167   
  1742. BD*(   1) C  18 - H  63          0.00711     0.32143   
  1743. BD*(   1) C  19 - C  20          0.03405     0.27064   
  1744. BD*(   1) C  19 - H  60          0.00579     0.30999   
  1745. BD*(   1) C  19 - H  61          0.00487     0.32201   
  1746. BD*(   1) C  20 - O  21          0.03347     0.42117   
  1747. BD*(   1) C  20 - O  22          0.02903     0.38090   
  1748. BD*(   2) C  20 - O  22          0.10981    -0.03653  1733(r),1747(g),1740(v)
                                                    1749(v),694(g)
  1749. BD*(   1) O  21 - H  59          0.00699     0.28695   
  1750. BD*(   1) N  23 - C  24          0.01381     0.36420   
  1751. BD*(   2) N  23 - C  24          0.29140    -0.10083  1717(v),1721(v),1755(v)
                                                    798(g),176(r),175(r),172(r)
                                                    1708(r)
  1752. BD*(   1) N  23 - C  27          0.01229     0.41332   
  1753. BD*(   1) C  24 - C  25          0.01748     0.36070   
  1754. BD*(   1) C  25 - C  26          0.01161     0.54589   
  1755. BD*(   2) C  25 - C  26          0.11083    -0.02100  1763(v),1721(v),1751(v)
                                                    1760(v),1764(v)
  1756. BD*(   1) C  25 - C  28          0.00850     0.31216   
  1757. BD*(   1) C  26 - C  27          0.01687     0.39180   
  1758. BD*(   1) C  26 - C  29          0.01368     0.31419   
  1759. BD*(   1) C  28 - H  78          0.00298     0.32480   
  1760. BD*(   1) C  28 - H  79          0.00441     0.32583   
  1761. BD*(   1) C  28 - H  80          0.00309     0.33828   
  1762. BD*(   1) C  29 - C  30          0.00273     0.48483   
  1763. BD*(   2) C  29 - C  30          0.01466    -0.02894   
  1764. BD*(   1) C  29 - H  88          0.00738     0.35356   
  1765. BD*(   1) C  30 - H  89          0.00451     0.35535   
  1766. BD*(   1) C  30 - H  90          0.00347     0.35627   
  1767. BD*(   1) N  31 - C  32          0.01460     0.34773   
  1768. BD*(   2) N  31 - C  32          0.35150    -0.12028  184(v),1721(v),186(v),175(r)
                                                    1006(g),979(g),432(v),982(g)
                                                    176(r),171(r)
  1769. BD*(   1) N  31 - C  35          0.01300     0.40774   
  1770. BD*(   1) C  32 - C  33          0.01648     0.38043   
  1771. BD*(   1) C  33 - C  34          0.01061     0.48297   
  1772. BD*(   1) C  33 - C  36          0.00818     0.29329   
  1773. BD*(   1) C  34 - C  35          0.01764     0.37205   
  1774. BD*(   1) C  34 - C  37          0.02850     0.28774   
  1775. BD*(   1) C  36 - H  82          0.00436     0.30589   
  1776. BD*(   1) C  36 - H  83          0.00380     0.30667   
  1777. BD*(   1) C  36 - H  84          0.00525     0.31321   
  1778. BD*(   1) C  37 - C  38          0.00198     0.45202   
  1779. BD*(   1) C  37 - H  85          0.02399     0.30111   
  1780. BD*(   1) C  38 - H  86          0.00604     0.29594   
  1781. BD*(   1) C  38 - H  87          0.00600     0.29360   
  1782. BD*(   1) N  39 - C  40          0.01313     0.41597   
  1783. BD*(   1) N  39 - C  43          0.01407     0.38821   
  1784. BD*(   1) C  40 - C  41          0.01649     0.41440   
  1785. BD*(   1) C  41 - C  42          0.01095     0.48224   
  1786. BD*(   2) C  41 - C  42          0.11747    -0.03842  1714(v),1726(v),1793(v)
                                                    1790(v)
  1787. BD*(   1) C  41 - C  44          0.00814     0.29892   
  1788. BD*(   1) C  42 - C  43          0.01700     0.39288   
  1789. BD*(   1) C  42 - C  45          0.01009     0.30614   
  1790. BD*(   1) C  44 - H  69          0.00451     0.31513   
  1791. BD*(   1) C  44 - H  70          0.00338     0.31621   
  1792. BD*(   1) C  44 - H  71          0.00309     0.32223   
  1793. BD*(   1) C  45 - C  46          0.00904     0.21584   
  1794. BD*(   1) C  45 - H  67          0.00658     0.32317   
  1795. BD*(   1) C  45 - H  68          0.00666     0.31460   
  1796. BD*(   1) C  46 - C  47          0.03237     0.28352   
  1797. BD*(   1) C  46 - H  65          0.00435     0.32296   
  1798. BD*(   1) C  46 - H  66          0.00634     0.30911   
  1799. BD*(   1) C  47 - O  48          0.03370     0.42051   
  1800. BD*(   1) C  47 - O  49          0.02197     0.45570   
  1801. BD*(   2) C  47 - O  49          0.09787    -0.06858   
  1802. BD*(   1) O  48 - H  64          0.00655     0.31164   
       -------------------------------
              Total Lewis  144.15887  ( 97.1605%)
        Valence non-Lewis    3.91507  (  2.6387%)
        Rydberg non-Lewis    0.29790  (  0.2008%)
       -------------------------------
            Total unit  3  148.37183  (100.0000%)
           Charge unit  3   -0.37183

 Molecular unit  4  (H2O)
   106. BD (   1) O  50 - H  51          0.99718    -0.83771  176(r),175(r),353(r),355(r)
                                                    172(r),173(r),357(r),359(r)
                                                    354(r),361(r),770(r),356(r)
                                                    327(r),771(r)
   107. BD (   1) O  50 - H  52          0.94226    -0.84986  176(r),175(r),172(r),171(r)
                                                    1500(v),1804(g),173(r)
                                                    362(r),357(r),356(r),359(r)
                                                    1782(r),1730(r),1783(r)
                                                    1188(r),1728(r),1767(r)
                                                    363(r),1189(r),1769(r)
                                                    486(r),366(r),487(r),1752(r)
                                                    1750(r)
   165. CR (   1) O  50                  0.99992   -19.06292  176(r),1500(v),1503(v)
                                                    175(r),171(r),172(r),357(r)
                                                    174(r)
   195. LP (   1) O  50                  0.99131    -0.68488  176(r),174(r),175(r),1504(v)
                                                    1804(g),1499(v),171(r)
                                                    172(r),361(r),363(r),980(r)
                                                    173(r),1186(r),771(r),328(r)
                                                    353(r),485(r)
   196. LP (   2) O  50                  0.97708    -0.40012  173(r),1498(v),175(r)
                                                    1505(v),172(r),176(r),355(r)
                                                    356(r),174(r),1768(r),484(r)
                                                    360(r),329(r),1189(r)
                                                    1187(r)
  1472. RY*(   1) O  50                  0.00118     0.83565   
  1473. RY*(   2) O  50                  0.00025     1.15014   
  1474. RY*(   3) O  50                  0.00014     0.75798   
  1475. RY*(   4) O  50                  0.00007     1.03710   
  1476. RY*(   5) O  50                  0.00000     3.18174   
  1477. RY*(   6) O  50                  0.00001     2.16194   
  1478. RY*(   7) O  50                  0.00000     2.82306   
  1479. RY*(   8) O  50                  0.00000     5.63499   
  1480. RY*(   9) O  50                  0.00001     3.21796   
  1481. RY*(  10) O  50                  0.00001     2.26591   
  1482. RY*(  11) O  50                  0.00000     6.28226   
  1483. RY*(  12) O  50                  0.00001     2.27809   
  1484. RY*(  13) O  50                  0.00000     6.39663   
  1485. RY*(  14) O  50                  0.00000    41.68087   
  1486. RY*(  15) O  50                  0.00000     6.41385   
  1487. RY*(  16) O  50                  0.00000     2.09633   
  1488. RY*(  17) O  50                  0.00000     6.29753   
  1489. RY*(  18) O  50                  0.00001     2.37060   
  1490. RY*(  19) O  50                  0.00000     6.47132   
  1491. RY*(  20) O  50                  0.00000     5.41334   
  1492. RY*(  21) O  50                  0.00000     5.44595   
  1493. RY*(  22) O  50                  0.00000     5.50324   
  1494. RY*(  23) O  50                  0.00000     5.52433   
  1495. RY*(  24) O  50                  0.00000     5.34857   
  1496. RY*(  25) O  50                  0.00000     5.24248   
  1497. RY*(  26) O  50                  0.00000     5.21689   
  1498. RY*(   1) H  51                  0.00061     1.85893   
  1499. RY*(   2) H  51                  0.00051     1.31847   
  1500. RY*(   3) H  51                  0.00021     2.23254   
  1501. RY*(   4) H  51                  0.00006     1.02746   
  1502. RY*(   5) H  51                  0.00000     2.88331   
  1503. RY*(   1) H  52                  0.00158     2.11296   
  1504. RY*(   2) H  52                  0.00066     2.01667   
  1505. RY*(   3) H  52                  0.00054     2.56720   
  1506. RY*(   4) H  52                  0.00033     3.01365   
  1507. RY*(   5) H  52                  0.00017     2.80688   
  1803. BD*(   1) O  50 - H  51          0.00075     0.38230   
  1804. BD*(   1) O  50 - H  52          0.02943     0.39202   
       -------------------------------
              Total Lewis    4.90775  ( 99.2606%)
        Valence non-Lewis    0.03018  (  0.6104%)
        Rydberg non-Lewis    0.00638  (  0.1291%)
       -------------------------------
            Total unit  4    4.94431  (100.0000%)
           Charge unit  4    0.05569
 1\1\GINC-NODE585\SP\UPBE1PBE\def2TZVP\C38H40Fe1N6O5(1+,2)\ZHARTOVSKA\1
 4-Nov-2022\0\\# PBE1PBE/def2TZVP empiricaldispersion=GD3BJ scf=maxcycl
 e=999 geom=check pop=nbo guess=read\\1jp6_III_D\\1,2\C,0,9.63,29.55299
 9,2.557\C,0,10.795,29.417999,3.487\N,0,10.968,30.237,4.581\C,0,11.88,2
 8.607,3.45\C,0,12.11,29.941,5.175\N,0,12.683,28.955999,4.509\Fe,0,14.8
 21,27.955,4.745\C,0,16.125999,31.091,4.992\C,0,13.993,28.052,8.056\C,0
 ,13.559,24.792,4.516\C,0,15.701,27.858999,1.491\N,0,15.009,29.292,6.21
 6\C,0,15.572,30.546,6.138\C,0,15.51,31.223,7.43\C,0,14.902,30.339001,8
 .285\C,0,14.603,29.165001,7.539\C,0,14.585,30.528,9.754\C,0,16.021,32.
 592999,7.684\C,0,14.874,33.652,7.837\C,0,13.879,33.578999,6.709\O,0,14
 .174,33.959999,5.563\O,0,12.722,33.111,6.98\N,0,13.95,26.672001,6.003\
 C,0,13.689,26.891001,7.351\C,0,13.037,25.701,7.92\C,0,12.918,24.805,6.
 939\C,0,13.488,25.42,5.765\C,0,12.619,25.607,9.362\C,0,12.32,23.413,6.
 981\C,0,12.74397196,22.52110061,7.90907882\N,0,14.658,26.598,3.273\C,0
 ,14.103,25.326,3.356\C,0,14.184,24.656,2.088\C,0,14.796,25.532,1.252\C
 ,0,15.076,26.731001,1.999\C,0,13.68,23.267,1.836\C,0,15.18,25.419001,-
 0.189\C,0,14.91687671,24.27904412,-0.87298209\N,0,15.736,29.235001,3.4
 66\C,0,16.016001,29.027,2.154\C,0,16.676001,30.150999,1.581\C,0,16.806
 ,31.072001,2.592\C,0,16.205999,30.493,3.768\C,0,17.143999,30.273001,0.
 151\C,0,17.471001,32.415001,2.478\C,0,19.004999,32.154999,2.738\C,0,19
 .898001,33.358002,2.675\O,0,20.177999,33.931,1.598\O,0,20.384001,33.76
 5999,3.767\O,0,16.879,27.052999,5.033\H,0,17.73033133,27.49665988,5.03
 3\H,0,16.17693541,27.70775491,5.033\H,0,12.07487393,27.83891923,2.7309
 8952\H,0,12.503716,30.41858511,6.04781165\H,0,10.32839444,30.94553285,
 4.87913741\H,0,9.90091146,29.18368223,1.58998805\H,0,8.80387441,28.988
 31181,2.93587318\H,0,9.35239294,30.58351014,2.48031155\H,0,15.09553948
 ,34.04486611,5.30773042\H,0,15.30579283,34.63082387,7.85594152\H,0,14.
 36365056,33.47956122,8.76150436\H,0,16.65057967,32.88247462,6.86868822
 \H,0,16.60241882,32.58275212,8.58219104\H,0,21.09569083,34.06338495,1.
 34917088\H,0,19.10748142,31.71594628,3.70837625\H,0,19.34937829,31.447
 58955,2.01282776\H,0,17.32542656,32.81737814,1.49728561\H,0,17.0796459
 9,33.0848772,3.21489017\H,0,18.0851794,29.77622516,0.04012518\H,0,16.4
 2396648,29.82227356,-0.49961351\H,0,17.25457294,31.30698056,-0.1011104
 5\H,0,15.97272573,27.81889892,0.4568544\H,0,16.53114317,32.07791244,5.
 07423163\H,0,15.3646569,31.0961166,10.21690241\H,0,13.65605028,31.0494
 5204,9.85420075\H,0,14.51035359,29.57194647,10.22864678\H,0,13.7272106
 1,28.07776974,9.09214281\H,0,13.35913898,26.07225593,9.97895317\H,0,11
 .68064725,26.10383877,9.49445889\H,0,12.51989312,24.57804372,9.6382730
 6\H,0,13.1543768,23.80372911,4.44891256\H,0,14.38286115,22.55741808,2.
 21990065\H,0,12.73729042,23.13548774,2.32477722\H,0,13.56007578,23.116
 57789,0.78343581\H,0,15.66248219,26.23821035,-0.67992461\H,0,15.651795
 53,23.50291702,-0.92218635\H,0,13.97420925,24.15511749,-1.36381837\H,0
 ,11.56306868,23.13445843,6.2778858\H,0,12.91434064,22.83781211,8.91683
 293\H,0,12.90835093,21.50018875,7.63409061\\Version=ES64L-G16RevA.03\S
 tate=2-A\HF=-3438.3492128\S2=1.800739\S2-1=0.\S2A=0.925596\RMSD=1.261e
 -09\Dipole=-0.3271196,-1.988608,-2.7641202\Quadrupole=-26.409251,6.064
 2981,20.3449528,20.1259933,-16.561315,14.208536\PG=C01 [X(C38H40Fe1N6O
 5)]\\@


 BRING ME INTO THE COMPANY OF THOSE WHO SEEK TRUTH,
 AND DELIVER ME FROM THOSE WHO HAVE FOUND IT.
 Job cpu time:       0 days  2 hours 36 minutes  2.2 seconds.
 Elapsed time:       0 days  0 hours 39 minutes  7.3 seconds.
 File lengths (MBytes):  RWF=   2965 Int=      0 D2E=      0 Chk=    250 Scr=      1
 Normal termination of Gaussian 16 at Mon Nov 14 10:06:16 2022.
