 Entering Gaussian System, Link 0=g16
 Input=/net/homes/chemie/zhartovska/work/BioModel/Konrad/1moh/1moh12/1moh12.com
 Output=/net/homes/chemie/zhartovska/work/BioModel/Konrad/1moh/1moh12/1moh12.log
 Initial command:
 /afs/math/software/gaussian/g16.A03/g16/l1.exe "/scratch/zhartovska_gaussian.iYd56Lm/Gau-13643.inp" -scrdir="/scratch/zhartovska_gaussian.iYd56Lm/"
 Entering Link 1 = /afs/math/software/gaussian/g16.A03/g16/l1.exe PID=     13644.
  
 Copyright (c) 1988,1990,1992,1993,1995,1998,2003,2009,2016,
            Gaussian, Inc.  All Rights Reserved.
  
 This is part of the Gaussian(R) 16 program.  It is based on
 the Gaussian(R) 09 system (copyright 2009, Gaussian, Inc.),
 the Gaussian(R) 03 system (copyright 2003, Gaussian, Inc.),
 the Gaussian(R) 98 system (copyright 1998, Gaussian, Inc.),
 the Gaussian(R) 94 system (copyright 1995, Gaussian, Inc.),
 the Gaussian 92(TM) system (copyright 1992, Gaussian, Inc.),
 the Gaussian 90(TM) system (copyright 1990, Gaussian, Inc.),
 the Gaussian 88(TM) system (copyright 1988, Gaussian, Inc.),
 the Gaussian 86(TM) system (copyright 1986, Carnegie Mellon
 University), and the Gaussian 82(TM) system (copyright 1983,
 Carnegie Mellon University). Gaussian is a federally registered
 trademark of Gaussian, Inc.
  
 This software contains proprietary and confidential information,
 including trade secrets, belonging to Gaussian, Inc.
  
 This software is provided under written license and may be
 used, copied, transmitted, or stored only in accord with that
 written license.
  
 The following legend is applicable only to US Government
 contracts under FAR:
  
                    RESTRICTED RIGHTS LEGEND
  
 Use, reproduction and disclosure by the US Government is
 subject to restrictions as set forth in subparagraphs (a)
 and (c) of the Commercial Computer Software - Restricted
 Rights clause in FAR 52.227-19.
  
 Gaussian, Inc.
 340 Quinnipiac St., Bldg. 40, Wallingford CT 06492
  
  
 ---------------------------------------------------------------
 Warning -- This program may not be used in any manner that
 competes with the business of Gaussian, Inc. or will provide
 assistance to any competitor of Gaussian, Inc.  The licensee
 of this program is prohibited from giving any competitor of
 Gaussian, Inc. access to this program.  By using this program,
 the user acknowledges that Gaussian, Inc. is engaged in the
 business of creating and licensing software in the field of
 computational chemistry and represents and warrants to the
 licensee that it is not a competitor of Gaussian, Inc. and that
 it will not use this program in any manner prohibited above.
 ---------------------------------------------------------------
  

 Cite this work as:
 Gaussian 16, Revision A.03,
 M. J. Frisch, G. W. Trucks, H. B. Schlegel, G. E. Scuseria, 
 M. A. Robb, J. R. Cheeseman, G. Scalmani, V. Barone, 
 G. A. Petersson, H. Nakatsuji, X. Li, M. Caricato, A. V. Marenich, 
 J. Bloino, B. G. Janesko, R. Gomperts, B. Mennucci, H. P. Hratchian, 
 J. V. Ortiz, A. F. Izmaylov, J. L. Sonnenberg, D. Williams-Young, 
 F. Ding, F. Lipparini, F. Egidi, J. Goings, B. Peng, A. Petrone, 
 T. Henderson, D. Ranasinghe, V. G. Zakrzewski, J. Gao, N. Rega, 
 G. Zheng, W. Liang, M. Hada, M. Ehara, K. Toyota, R. Fukuda, 
 J. Hasegawa, M. Ishida, T. Nakajima, Y. Honda, O. Kitao, H. Nakai, 
 T. Vreven, K. Throssell, J. A. Montgomery, Jr., J. E. Peralta, 
 F. Ogliaro, M. J. Bearpark, J. J. Heyd, E. N. Brothers, K. N. Kudin, 
 V. N. Staroverov, T. A. Keith, R. Kobayashi, J. Normand, 
 K. Raghavachari, A. P. Rendell, J. C. Burant, S. S. Iyengar, 
 J. Tomasi, M. Cossi, J. M. Millam, M. Klene, C. Adamo, R. Cammi, 
 J. W. Ochterski, R. L. Martin, K. Morokuma, O. Farkas, 
 J. B. Foresman, and D. J. Fox, Gaussian, Inc., Wallingford CT, 2016.
 
 ******************************************
 Gaussian 16:  ES64L-G16RevA.03 25-Dec-2016
                 6-Oct-2022 
 ******************************************
 %nprocs=12
 Will use up to   12 processors via shared memory.
 %mem=16GB
 %oldchk=1moh_II_S.chk
 %chk=1moh_III_D.chk
 Copying data from "1moh_II_S.chk" to current chk file "1moh_III_D.chk"
 IOpt=  2 FromEx=T IUOpen= 4 IOptOp= 5 NList=   0 IFRang= 0 IUIn= 4 IUOut= 2.
 ----------------------------------------------------------------------
 # PBE1PBE/def2TZVP empiricaldispersion=GD3BJ scf=maxcycle=999 geom=che
 ck pop=nbo
 ----------------------------------------------------------------------
 1/29=2,38=1,172=1/1;
 2/12=2,40=1/2;
 3/5=44,7=101,11=2,14=-4,25=1,30=1,74=-13,124=41/1,2,3;
 4//1;
 5/5=2,7=999,38=5/2;
 6/7=2,8=2,9=2,10=2,28=1,40=1/1,7;
 99/5=1,9=1/99;
 ----------
 1moh_III_D
 ----------
 Structure from the checkpoint file:  "1moh_III_D.chk"
 Charge =  1 Multiplicity = 2
 Z-Matrix found in chk file.
 C,0,11.542,-1.461,-4.191
 C,0,12.241,-2.153,-3.057
 N,0,13.612,-2.335,-2.989
 C,0,11.717,-2.757,-1.952
 C,0,13.898,-3.038,-1.892
 N,0,12.765,-3.294,-1.259
 Fe,0,12.592,-4.355,0.602
 C,0,14.027,-7.044,-0.7
 C,0,15.574,-3.206,1.845
 C,0,11.15,-1.576,1.763
 C,0,9.499,-5.549,-0.294
 N,0,14.273,-4.799,0.527
 C,0,14.706,-5.95,-0.194
 C,0,16.141001,-6.097,-0.291
 C,0,16.608999,-5.056,0.433
 C,0,15.493,-4.283,0.955
 C,0,18.101,-4.838,0.734
 C,0,16.989,-7.312,-0.817
 C,0,17.655001,-6.727,-2.085
 C,0,16.681999,-6.717,-3.243
 O,0,16.389,-7.753,-3.898
 O,0,16.049999,-5.694,-3.524
 N,0,13.184,-2.658,1.6
 C,0,14.413,-2.479,2.117
 C,0,14.414,-1.233,2.895
 C,0,13.248,-0.613,2.75
 C,0,12.446,-1.681,2.188
 C,0,15.783,-0.909,3.502
 C,0,12.715,0.739,3.303
 C,0,13.375,1.372,4.261
 N,0,10.984,-3.881,0.664
 C,0,10.499,-2.667,1.232
 C,0,9.085,-2.4,1.174
 C,0,8.582,-3.539,0.693
 C,0,9.718,-4.397,0.428
 C,0,8.182,-1.369,1.886
 C,0,7.087,-3.88,0.424
 C,0,6.02,-3.141,0.009
 N,0,11.93,-5.922,-0.359
 C,0,10.623,-6.27,-0.59
 C,0,10.545,-7.599,-1.219
 C,0,11.817,-7.983,-1.478
 C,0,12.676,-6.973,-0.862
 C,0,9.144,-8.084,-1.618
 C,0,12.297,-9.241,-2.219
 C,0,12.221,-10.359,-1.132
 C,0,12.747,-11.726,-1.522
 O,0,13.962,-11.983,-1.316
 O,0,11.958,-12.536,-2.085
 S,0,12.452,-5.431,2.618
 H,0,12.14907565,-1.51524004,-5.0704414
 H,0,10.60276344,-1.93905866,-4.37591782
 H,0,11.37591954,-0.43544947,-3.93494652
 H,0,10.6831357,-2.80173201,-1.67992712
 H,0,14.87474041,-3.34216595,-1.57837402
 H,0,14.27811025,-1.99531741,-3.65301271
 H,0,13.5443171,-5.77150213,3.25596682
 H,0,11.27957672,-5.70617115,3.1335623
 H,0,6.13295164,-2.44183326,-0.79306471
 H,0,5.06920775,-3.25988068,0.48519479
 H,0,6.84773829,-4.90763082,0.6018447
 H,0,8.52144228,-5.85740008,-0.60087179
 H,0,9.17591,-9.13277516,-1.82764833
 H,0,8.46116651,-7.90147327,-0.81468038
 H,0,8.81853825,-7.55575789,-2.48974246
 H,0,13.30338268,-9.11571847,-2.56017215
 H,0,11.64585025,-9.46705238,-3.03741574
 H,0,12.77174724,-10.02557965,-0.27736069
 H,0,11.1963207,-10.46995844,-0.84456208
 H,0,12.30743368,-13.27021183,-2.59532254
 H,0,14.55695151,-7.93607265,-0.96126192
 H,0,17.08600336,-8.31097556,-4.25077413
 H,0,18.50473531,-7.32352683,-2.34385777
 H,0,17.97500071,-5.72575986,-1.88495406
 H,0,17.7274261,-7.59975934,-0.09809704
 H,0,16.35590659,-8.13769242,-1.06664926
 H,0,18.65826131,-4.87618002,-0.17863471
 H,0,18.23592063,-3.8816538,1.19454139
 H,0,18.44709097,-5.60446152,1.39555708
 H,0,16.50369963,-2.94565229,2.3062783
 H,0,10.63860079,-0.63959713,1.84374975
 H,0,8.68223036,-0.42396136,1.92564277
 H,0,7.26470104,-1.26459176,1.34511042
 H,0,7.9734657,-1.70416495,2.88052396
 H,0,16.49401163,-0.75617672,2.71713854
 H,0,15.70934897,-0.02101946,4.09442391
 H,0,16.1016803,-1.72353848,4.11833589
 H,0,14.38297762,1.69064997,4.09564186
 H,0,12.90024255,1.56475571,5.20033519
 H,0,11.81319339,1.15879465,2.90877
 Recover connectivity data from disk.
 Stoichiometry    C38H40FeN6O4S(1+,2)
 Framework group  C1[X(C38H40FeN6O4S)]
 Deg. of freedom   264
 Full point group                 C1      NOp   1
 Largest Abelian subgroup         C1      NOp   1
 Largest concise Abelian subgroup C1      NOp   1
                         Standard orientation:                         
 ---------------------------------------------------------------------
 Center     Atomic      Atomic             Coordinates (Angstroms)
 Number     Number       Type             X           Y           Z
 ---------------------------------------------------------------------
      1          6           0       -1.521684    0.857729    5.186847
      2          6           0       -1.217927    0.227520    3.858695
      3          7           0       -0.739051   -1.062733    3.706006
      4          6           0       -1.289910    0.762400    2.606042
      5          6           0       -0.515280   -1.287220    2.410264
      6          7           0       -0.846880   -0.196457    1.739301
      7         26           0       -0.749404    0.028480   -0.395851
      8          6           0        2.505079   -0.598801   -0.398482
      9          6           0       -1.513651   -3.250170   -1.046968
     10          6           0       -4.024762    0.655920   -0.227105
     11          6           0       -0.120124    3.389553   -0.076013
     12          7           0        0.096673   -1.485813   -0.535815
     13          6           0        1.512418   -1.562347   -0.387692
     14          6           0        2.046480   -2.905817   -0.377076
     15          6           0        0.954606   -3.675202   -0.583803
     16          6           0       -0.222123   -2.829675   -0.709728
     17          6           0        1.017963   -5.199591   -0.774638
     18          6           0        3.541602   -3.388631   -0.436270
     19          6           0        3.734812   -4.039758    0.953805
     20          6           0        3.965339   -2.982984    2.011105
     21          8           0        5.068390   -2.391036    2.156173
     22          8           0        3.031720   -2.581872    2.712802
     23          7           0       -2.496216   -1.041867   -0.566975
     24          6           0       -2.556658   -2.324874   -0.966989
     25          6           0       -3.968634   -2.696014   -1.129410
     26          6           0       -4.744397   -1.698351   -0.719725
     27          6           0       -3.782140   -0.616213   -0.667646
     28          6           0       -4.157560   -4.157427   -1.549131
     29          6           0       -6.290002   -1.554873   -0.628516
     30          6           0       -7.076078   -2.438602   -1.224470
     31          7           0       -1.597561    1.466508   -0.231863
     32          6           0       -3.017075    1.594241   -0.214316
     33          6           0       -3.585125    2.905220   -0.033477
     34          6           0       -2.518988    3.706520   -0.087896
     35          6           0       -1.371202    2.835255   -0.230622
     36          6           0       -5.012212    3.465174   -0.221057
     37          6           0       -2.489446    5.259245    0.020911
     38          6           0       -3.230118    6.160962    0.724577
     39          7           0        0.850819    1.132406   -0.201202
     40          6           0        0.918332    2.501086   -0.131418
     41          6           0        2.320342    2.950847   -0.138520
     42          6           0        3.087427    1.836843   -0.082869
     43          6           0        2.167484    0.707608   -0.209248
     44          6           0        2.553876    4.459544    0.024329
     45          6           0        4.616728    1.741870    0.036565
     46          6           0        5.113973    1.965309   -1.426340
     47          6           0        6.602325    1.815463   -1.670925
     48          8           0        7.048784    0.679481   -1.979031
     49          8           0        7.343625    2.824925   -1.506459
     50         16           0       -0.695638    0.209185   -2.677536
     51          1           0       -0.950150    0.373095    5.950641
     52          1           0       -1.266673    1.896421    5.155431
     53          1           0       -2.564743    0.752877    5.401166
     54          1           0       -1.628507    1.744835    2.350948
     55          1           0       -0.133644   -2.192779    1.986924
     56          1           0       -0.586128   -1.718368    4.445437
     57          1           0       -0.389313   -0.832764   -3.410070
     58          1           0       -0.971199    1.354532   -3.250552
     59          1           0       -3.473013    5.970445    1.749080
     60          1           0       -3.568822    7.059534    0.252615
     61          1           0       -1.730188    5.712269   -0.581747
     62          1           0        0.028659    4.438160    0.076263
     63          1           0        3.563499    4.694825   -0.240635
     64          1           0        1.883345    4.995270   -0.614643
     65          1           0        2.377540    4.739981    1.041758
     66          1           0        4.907235    0.774266    0.389054
     67          1           0        4.991965    2.507830    0.682632
     68          1           0        4.604445    1.267688   -2.057692
     69          1           0        4.828929    2.952748   -1.724020
     70          1           0        8.286547    2.710438   -1.367208
     71          1           0        3.526704   -0.876436   -0.553724
     72          1           0        5.880057   -2.898837    2.226415
     73          1           0        4.579440   -4.695842    0.921290
     74          1           0        2.860198   -4.603269    1.203615
     75          1           0        3.677886   -4.108930   -1.215691
     76          1           0        4.204500   -2.558255   -0.562533
     77          1           0        1.576788   -5.636412    0.026487
     78          1           0        0.025807   -5.600239   -0.777390
     79          1           0        1.495385   -5.422932   -1.705814
     80          1           0       -1.697691   -4.257044   -1.358793
     81          1           0       -5.004372    0.923695    0.109883
     82          1           0       -5.724563    2.756864    0.147389
     83          1           0       -5.109199    4.383064    0.320213
     84          1           0       -5.191569    3.643535   -1.260729
     85          1           0       -3.779665   -4.800541   -0.781995
     86          1           0       -5.198719   -4.353889   -1.698430
     87          1           0       -3.626233   -4.338426   -2.460081
     88          1           0       -7.027488   -3.470817   -0.946854
     89          1           0       -7.759744   -2.120360   -1.983563
     90          1           0       -6.719372   -0.740532   -0.083181
 ---------------------------------------------------------------------
 Rotational constants (GHZ):           0.0748740           0.0495720           0.0382745
 Standard basis: def2TZVP (5D, 7F)
 There are  2062 symmetry adapted cartesian basis functions of A   symmetry.
 There are  1810 symmetry adapted basis functions of A   symmetry.
  1810 basis functions,  2939 primitive gaussians,  2062 cartesian basis functions
   192 alpha electrons      191 beta electrons
       nuclear repulsion energy      8094.0438910700 Hartrees.
 NAtoms=   90 NActive=   90 NUniq=   90 SFac= 1.00D+00 NAtFMM=   60 NAOKFM=T Big=T
 Integral buffers will be    131072 words long.
 Raffenetti 2 integral format.
 Two-electron integral symmetry is turned on.
 Nuclear repulsion after empirical dispersion term =     8093.9105442576 Hartrees.
 One-electron integrals computed using PRISM.
   1 Symmetry operations used in ECPInt.
 ECPInt:  NShTT=  256686 NPrTT=  799487 LenC2=  190353 LenP2D=  384546.
 LDataN:  DoStor=T MaxTD1= 6 Len=  172
 NBasis=  1810 RedAO= T EigKep=  3.88D-06  NBF=  1810
 NBsUse=  1810 1.00D-06 EigRej= -1.00D+00 NBFU=  1810
 ExpMin= 4.20D-02 ExpMax= 3.01D+05 ExpMxC= 2.91D+03 IAcc=3 IRadAn=         5 AccDes= 0.00D+00
 Harris functional with IExCor= 1009 and IRadAn=       5 diagonalized for initial guess.
 HarFok:  IExCor= 1009 AccDes= 0.00D+00 IRadAn=         5 IDoV= 1 UseB2=F ITyADJ=14
 ICtDFT=  3500011 ScaDFX=  1.000000  1.000000  1.000000  1.000000
 FoFCou: FMM=F IPFlag=           0 FMFlag=      100000 FMFlg1=        2001
         NFxFlg=           0 DoJE=T BraDBF=F KetDBF=T FulRan=T
         wScrn=  0.000000 ICntrl=       500 IOpCl=  0 I1Cent=   200000004 NGrid=           0
         NMat0=    1 NMatS0=      1 NMatT0=    0 NMatD0=    1 NMtDS0=    0 NMtDT0=    0
 Petite list used in FoFCou.
 Initial guess <Sx>= 0.0000 <Sy>= 0.0000 <Sz>= 0.5000 <S**2>= 0.7500 S= 0.5000
 Requested convergence on RMS density matrix=1.00D-08 within 999 cycles.
 Requested convergence on MAX density matrix=1.00D-06.
 Requested convergence on             energy=1.00D-06.
 No special actions if energy rises.
 EnCoef did   100 forward-backward iterations
 EnCoef did   100 forward-backward iterations
 EnCoef did    12 forward-backward iterations
 EnCoef did     6 forward-backward iterations
 EnCoef did     3 forward-backward iterations
 Restarting incremental Fock formation.
 Restarting incremental Fock formation.
 Restarting incremental Fock formation.
 Restarting incremental Fock formation.
 SCF Done:  E(UPBE1PBE) =  -3761.13511741     A.U. after   88 cycles
            NFock= 88  Conv=0.29D-08     -V/T= 2.0029
 <Sx>= 0.0000 <Sy>= 0.0000 <Sz>= 0.5000 <S**2>= 0.9051 S= 0.5747
 <L.S>= 0.000000000000E+00
 Annihilation of the first spin contaminant:
 S**2 before annihilation     0.9051,   after     0.7712

 **********************************************************************

            Population analysis using the SCF density.

 **********************************************************************

 Orbital symmetries:
 Alpha Orbitals:
       Occupied  (A) (A) (A) (A) (A) (A) (A) (A) (A) (A) (A) (A)
                 (A) (A) (A) (A) (A) (A) (A) (A) (A) (A) (A) (A)
                 (A) (A) (A) (A) (A) (A) (A) (A) (A) (A) (A) (A)
                 (A) (A) (A) (A) (A) (A) (A) (A) (A) (A) (A) (A)
                 (A) (A) (A) (A) (A) (A) (A) (A) (A) (A) (A) (A)
                 (A) (A) (A) (A) (A) (A) (A) (A) (A) (A) (A) (A)
                 (A) (A) (A) (A) (A) (A) (A) (A) (A) (A) (A) (A)
                 (A) (A) (A) (A) (A) (A) (A) (A) (A) (A) (A) (A)
                 (A) (A) (A) (A) (A) (A) (A) (A) (A) (A) (A) (A)
                 (A) (A) (A) (A) (A) (A) (A) (A) (A) (A) (A) (A)
                 (A) (A) (A) (A) (A) (A) (A) (A) (A) (A) (A) (A)
                 (A) (A) (A) (A) (A) (A) (A) (A) (A) (A) (A) (A)
                 (A) (A) (A) (A) (A) (A) (A) (A) (A) (A) (A) (A)
                 (A) (A) (A) (A) (A) (A) (A) (A) (A) (A) (A) (A)
                 (A) (A) (A) (A) (A) (A) (A) (A) (A) (A) (A) (A)
                 (A) (A) (A) (A) (A) (A) (A) (A) (A) (A) (A) (A)
       Virtual   (A) (A) (A) (A) (A) (A) (A) (A) (A) (A) (A) (A)
                 (A) (A) (A) (A) (A) (A) (A) (A) (A) (A) (A) (A)
                 (A) (A) (A) (A) (A) (A) (A) (A) (A) (A) (A) (A)
                 (A) (A) (A) (A) (A) (A) (A) (A) (A) (A) (A) (A)
                 (A) (A) (A) (A) (A) (A) (A) (A) (A) (A) (A) (A)
                 (A) (A) (A) (A) (A) (A) (A) (A) (A) (A) (A) (A)
                 (A) (A) (A) (A) (A) (A) (A) (A) (A) (A) (A) (A)
                 (A) (A) (A) (A) (A) (A) (A) (A) (A) (A) (A) (A)
                 (A) (A) (A) (A) (A) (A) (A) (A) (A) (A) (A) (A)
                 (A) (A) (A) (A) (A) (A) (A) (A) (A) (A) (A) (A)
                 (A) (A) (A) (A) (A) (A) (A) (A) (A) (A) (A) (A)
                 (A) (A) (A) (A) (A) (A) (A) (A) (A) (A) (A) (A)
                 (A) (A) (A) (A) (A) (A) (A) (A) (A) (A) (A) (A)
                 (A) (A) (A) (A) (A) (A) (A) (A) (A) (A) (A) (A)
                 (A) (A) (A) (A) (A) (A) (A) (A) (A) (A) (A) (A)
                 (A) (A) (A) (A) (A) (A) (A) (A) (A) (A) (A) (A)
                 (A) (A) (A) (A) (A) (A) (A) (A) (A) (A) (A) (A)
                 (A) (A) (A) (A) (A) (A) (A) (A) (A) (A) (A) (A)
                 (A) (A) (A) (A) (A) (A) (A) (A) (A) (A) (A) (A)
                 (A) (A) (A) (A) (A) (A) (A) (A) (A) (A) (A) (A)
                 (A) (A) (A) (A) (A) (A) (A) (A) (A) (A) (A) (A)
                 (A) (A) (A) (A) (A) (A) (A) (A) (A) (A) (A) (A)
                 (A) (A) (A) (A) (A) (A) (A) (A) (A) (A) (A) (A)
                 (A) (A) (A) (A) (A) (A) (A) (A) (A) (A) (A) (A)
                 (A) (A) (A) (A) (A) (A) (A) (A) (A) (A) (A) (A)
                 (A) (A) (A) (A) (A) (A) (A) (A) (A) (A) (A) (A)
                 (A) (A) (A) (A) (A) (A) (A) (A) (A) (A) (A) (A)
                 (A) (A) (A) (A) (A) (A) (A) (A) (A) (A) (A) (A)
                 (A) (A) (A) (A) (A) (A) (A) (A) (A) (A) (A) (A)
                 (A) (A) (A) (A) (A) (A) (A) (A) (A) (A) (A) (A)
                 (A) (A) (A) (A) (A) (A) (A) (A) (A) (A) (A) (A)
                 (A) (A) (A) (A) (A) (A) (A) (A) (A) (A) (A) (A)
                 (A) (A) (A) (A) (A) (A) (A) (A) (A) (A) (A) (A)
                 (A) (A) (A) (A) (A) (A) (A) (A) (A) (A) (A) (A)
                 (A) (A) (A) (A) (A) (A) (A) (A) (A) (A) (A) (A)
                 (A) (A) (A) (A) (A) (A) (A) (A) (A) (A) (A) (A)
                 (A) (A) (A) (A) (A) (A) (A) (A) (A) (A) (A) (A)
                 (A) (A) (A) (A) (A) (A) (A) (A) (A) (A) (A) (A)
                 (A) (A) (A) (A) (A) (A) (A) (A) (A) (A) (A) (A)
                 (A) (A) (A) (A) (A) (A) (A) (A) (A) (A) (A) (A)
                 (A) (A) (A) (A) (A) (A) (A) (A) (A) (A) (A) (A)
                 (A) (A) (A) (A) (A) (A) (A) (A) (A) (A) (A) (A)
                 (A) (A) (A) (A) (A) (A) (A) (A) (A) (A) (A) (A)
                 (A) (A) (A) (A) (A) (A) (A) (A) (A) (A) (A) (A)
                 (A) (A) (A) (A) (A) (A) (A) (A) (A) (A) (A) (A)
                 (A) (A) (A) (A) (A) (A) (A) (A) (A) (A) (A) (A)
                 (A) (A) (A) (A) (A) (A) (A) (A) (A) (A) (A) (A)
                 (A) (A) (A) (A) (A) (A) (A) (A) (A) (A) (A) (A)
                 (A) (A) (A) (A) (A) (A) (A) (A) (A) (A) (A) (A)
                 (A) (A) (A) (A) (A) (A) (A) (A) (A) (A) (A) (A)
                 (A) (A) (A) (A) (A) (A) (A) (A) (A) (A) (A) (A)
                 (A) (A) (A) (A) (A) (A) (A) (A) (A) (A) (A) (A)
                 (A) (A) (A) (A) (A) (A) (A) (A) (A) (A) (A) (A)
                 (A) (A) (A) (A) (A) (A) (A) (A) (A) (A) (A) (A)
                 (A) (A) (A) (A) (A) (A) (A) (A) (A) (A) (A) (A)
                 (A) (A) (A) (A) (A) (A) (A) (A) (A) (A) (A) (A)
                 (A) (A) (A) (A) (A) (A) (A) (A) (A) (A) (A) (A)
                 (A) (A) (A) (A) (A) (A) (A) (A) (A) (A) (A) (A)
                 (A) (A) (A) (A) (A) (A) (A) (A) (A) (A) (A) (A)
                 (A) (A) (A) (A) (A) (A) (A) (A) (A) (A) (A) (A)
                 (A) (A) (A) (A) (A) (A) (A) (A) (A) (A) (A) (A)
                 (A) (A) (A) (A) (A) (A) (A) (A) (A) (A) (A) (A)
                 (A) (A) (A) (A) (A) (A) (A) (A) (A) (A) (A) (A)
                 (A) (A) (A) (A) (A) (A) (A) (A) (A) (A) (A) (A)
                 (A) (A) (A) (A) (A) (A) (A) (A) (A) (A) (A) (A)
                 (A) (A) (A) (A) (A) (A) (A) (A) (A) (A) (A) (A)
                 (A) (A) (A) (A) (A) (A) (A) (A) (A) (A) (A) (A)
                 (A) (A) (A) (A) (A) (A) (A) (A) (A) (A) (A) (A)
                 (A) (A) (A) (A) (A) (A) (A) (A) (A) (A) (A) (A)
                 (A) (A) (A) (A) (A) (A) (A) (A) (A) (A) (A) (A)
                 (A) (A) (A) (A) (A) (A) (A) (A) (A) (A) (A) (A)
                 (A) (A) (A) (A) (A) (A) (A) (A) (A) (A) (A) (A)
                 (A) (A) (A) (A) (A) (A) (A) (A) (A) (A) (A) (A)
                 (A) (A) (A) (A) (A) (A) (A) (A) (A) (A) (A) (A)
                 (A) (A) (A) (A) (A) (A) (A) (A) (A) (A) (A) (A)
                 (A) (A) (A) (A) (A) (A) (A) (A) (A) (A) (A) (A)
                 (A) (A) (A) (A) (A) (A) (A) (A) (A) (A) (A) (A)
                 (A) (A) (A) (A) (A) (A) (A) (A) (A) (A) (A) (A)
                 (A) (A) (A) (A) (A) (A) (A) (A) (A) (A) (A) (A)
                 (A) (A) (A) (A) (A) (A) (A) (A) (A) (A) (A) (A)
                 (A) (A) (A) (A) (A) (A) (A) (A) (A) (A) (A) (A)
                 (A) (A) (A) (A) (A) (A) (A) (A) (A) (A) (A) (A)
                 (A) (A) (A) (A) (A) (A) (A) (A) (A) (A) (A) (A)
                 (A) (A) (A) (A) (A) (A) (A) (A) (A) (A) (A) (A)
                 (A) (A) (A) (A) (A) (A) (A) (A) (A) (A) (A) (A)
                 (A) (A) (A) (A) (A) (A) (A) (A) (A) (A) (A) (A)
                 (A) (A) (A) (A) (A) (A) (A) (A) (A) (A) (A) (A)
                 (A) (A) (A) (A) (A) (A) (A) (A) (A) (A) (A) (A)
                 (A) (A) (A) (A) (A) (A) (A) (A) (A) (A) (A) (A)
                 (A) (A) (A) (A) (A) (A) (A) (A) (A) (A) (A) (A)
                 (A) (A) (A) (A) (A) (A) (A) (A) (A) (A) (A) (A)
                 (A) (A) (A) (A) (A) (A) (A) (A) (A) (A) (A) (A)
                 (A) (A) (A) (A) (A) (A) (A) (A) (A) (A) (A) (A)
                 (A) (A) (A) (A) (A) (A) (A) (A) (A) (A) (A) (A)
                 (A) (A) (A) (A) (A) (A) (A) (A) (A) (A) (A) (A)
                 (A) (A) (A) (A) (A) (A) (A) (A) (A) (A) (A) (A)
                 (A) (A) (A) (A) (A) (A) (A) (A) (A) (A) (A) (A)
                 (A) (A) (A) (A) (A) (A) (A) (A) (A) (A) (A) (A)
                 (A) (A) (A) (A) (A) (A) (A) (A) (A) (A) (A) (A)
                 (A) (A) (A) (A) (A) (A) (A) (A) (A) (A) (A) (A)
                 (A) (A) (A) (A) (A) (A) (A) (A) (A) (A) (A) (A)
                 (A) (A) (A) (A) (A) (A) (A) (A) (A) (A) (A) (A)
                 (A) (A) (A) (A) (A) (A) (A) (A) (A) (A) (A) (A)
                 (A) (A) (A) (A) (A) (A) (A) (A) (A) (A) (A) (A)
                 (A) (A) (A) (A) (A) (A) (A) (A) (A) (A) (A) (A)
                 (A) (A) (A) (A) (A) (A) (A) (A) (A) (A) (A) (A)
                 (A) (A) (A) (A) (A) (A) (A) (A) (A) (A) (A) (A)
                 (A) (A) (A) (A) (A) (A) (A) (A) (A) (A) (A) (A)
                 (A) (A) (A) (A) (A) (A) (A) (A) (A) (A) (A) (A)
                 (A) (A) (A) (A) (A) (A) (A) (A) (A) (A) (A) (A)
                 (A) (A) (A) (A) (A) (A) (A) (A) (A) (A) (A) (A)
                 (A) (A) (A) (A) (A) (A) (A) (A) (A) (A) (A) (A)
                 (A) (A) (A) (A) (A) (A) (A) (A) (A) (A) (A) (A)
                 (A) (A) (A) (A) (A) (A) (A) (A) (A) (A) (A) (A)
                 (A) (A) (A) (A) (A) (A) (A) (A) (A) (A) (A) (A)
                 (A) (A) (A) (A) (A) (A) (A) (A) (A) (A) (A) (A)
                 (A) (A) (A) (A) (A) (A) (A) (A) (A) (A) (A) (A)
                 (A) (A) (A) (A) (A) (A) (A) (A) (A) (A) (A) (A)
                 (A) (A) (A) (A) (A) (A) (A) (A) (A) (A) (A) (A)
                 (A) (A) (A) (A) (A) (A) (A) (A) (A) (A) (A) (A)
                 (A) (A) (A) (A) (A) (A) (A) (A) (A) (A) (A) (A)
                 (A) (A) (A) (A) (A) (A) (A) (A) (A) (A) (A) (A)
                 (A) (A) (A) (A) (A) (A) (A) (A) (A) (A) (A) (A)
                 (A) (A) (A) (A) (A) (A) (A) (A) (A) (A) (A) (A)
                 (A) (A) (A) (A) (A) (A) (A) (A) (A) (A) (A) (A)
                 (A) (A) (A) (A) (A) (A) (A) (A) (A) (A) (A) (A)
                 (A) (A) (A) (A) (A) (A) (A) (A) (A) (A) (A) (A)
                 (A) (A) (A) (A) (A) (A) (A) (A) (A) (A) (A) (A)
                 (A) (A) (A) (A) (A) (A) (A) (A) (A) (A) (A) (A)
                 (A) (A) (A) (A) (A) (A) (A) (A) (A) (A) (A) (A)
                 (A) (A) (A) (A) (A) (A) (A) (A) (A) (A) (A) (A)
                 (A) (A) (A) (A) (A) (A) (A) (A) (A) (A) (A) (A)
                 (A) (A) (A) (A) (A) (A) (A) (A) (A) (A) (A) (A)
                 (A) (A) (A) (A) (A) (A) (A) (A) (A) (A) (A) (A)
                 (A) (A) (A) (A) (A) (A) (A) (A) (A) (A)
 Beta  Orbitals:
       Occupied  (A) (A) (A) (A) (A) (A) (A) (A) (A) (A) (A) (A)
                 (A) (A) (A) (A) (A) (A) (A) (A) (A) (A) (A) (A)
                 (A) (A) (A) (A) (A) (A) (A) (A) (A) (A) (A) (A)
                 (A) (A) (A) (A) (A) (A) (A) (A) (A) (A) (A) (A)
                 (A) (A) (A) (A) (A) (A) (A) (A) (A) (A) (A) (A)
                 (A) (A) (A) (A) (A) (A) (A) (A) (A) (A) (A) (A)
                 (A) (A) (A) (A) (A) (A) (A) (A) (A) (A) (A) (A)
                 (A) (A) (A) (A) (A) (A) (A) (A) (A) (A) (A) (A)
                 (A) (A) (A) (A) (A) (A) (A) (A) (A) (A) (A) (A)
                 (A) (A) (A) (A) (A) (A) (A) (A) (A) (A) (A) (A)
                 (A) (A) (A) (A) (A) (A) (A) (A) (A) (A) (A) (A)
                 (A) (A) (A) (A) (A) (A) (A) (A) (A) (A) (A) (A)
                 (A) (A) (A) (A) (A) (A) (A) (A) (A) (A) (A) (A)
                 (A) (A) (A) (A) (A) (A) (A) (A) (A) (A) (A) (A)
                 (A) (A) (A) (A) (A) (A) (A) (A) (A) (A) (A) (A)
                 (A) (A) (A) (A) (A) (A) (A) (A) (A) (A) (A)
       Virtual   (A) (A) (A) (A) (A) (A) (A) (A) (A) (A) (A) (A)
                 (A) (A) (A) (A) (A) (A) (A) (A) (A) (A) (A) (A)
                 (A) (A) (A) (A) (A) (A) (A) (A) (A) (A) (A) (A)
                 (A) (A) (A) (A) (A) (A) (A) (A) (A) (A) (A) (A)
                 (A) (A) (A) (A) (A) (A) (A) (A) (A) (A) (A) (A)
                 (A) (A) (A) (A) (A) (A) (A) (A) (A) (A) (A) (A)
                 (A) (A) (A) (A) (A) (A) (A) (A) (A) (A) (A) (A)
                 (A) (A) (A) (A) (A) (A) (A) (A) (A) (A) (A) (A)
                 (A) (A) (A) (A) (A) (A) (A) (A) (A) (A) (A) (A)
                 (A) (A) (A) (A) (A) (A) (A) (A) (A) (A) (A) (A)
                 (A) (A) (A) (A) (A) (A) (A) (A) (A) (A) (A) (A)
                 (A) (A) (A) (A) (A) (A) (A) (A) (A) (A) (A) (A)
                 (A) (A) (A) (A) (A) (A) (A) (A) (A) (A) (A) (A)
                 (A) (A) (A) (A) (A) (A) (A) (A) (A) (A) (A) (A)
                 (A) (A) (A) (A) (A) (A) (A) (A) (A) (A) (A) (A)
                 (A) (A) (A) (A) (A) (A) (A) (A) (A) (A) (A) (A)
                 (A) (A) (A) (A) (A) (A) (A) (A) (A) (A) (A) (A)
                 (A) (A) (A) (A) (A) (A) (A) (A) (A) (A) (A) (A)
                 (A) (A) (A) (A) (A) (A) (A) (A) (A) (A) (A) (A)
                 (A) (A) (A) (A) (A) (A) (A) (A) (A) (A) (A) (A)
                 (A) (A) (A) (A) (A) (A) (A) (A) (A) (A) (A) (A)
                 (A) (A) (A) (A) (A) (A) (A) (A) (A) (A) (A) (A)
                 (A) (A) (A) (A) (A) (A) (A) (A) (A) (A) (A) (A)
                 (A) (A) (A) (A) (A) (A) (A) (A) (A) (A) (A) (A)
                 (A) (A) (A) (A) (A) (A) (A) (A) (A) (A) (A) (A)
                 (A) (A) (A) (A) (A) (A) (A) (A) (A) (A) (A) (A)
                 (A) (A) (A) (A) (A) (A) (A) (A) (A) (A) (A) (A)
                 (A) (A) (A) (A) (A) (A) (A) (A) (A) (A) (A) (A)
                 (A) (A) (A) (A) (A) (A) (A) (A) (A) (A) (A) (A)
                 (A) (A) (A) (A) (A) (A) (A) (A) (A) (A) (A) (A)
                 (A) (A) (A) (A) (A) (A) (A) (A) (A) (A) (A) (A)
                 (A) (A) (A) (A) (A) (A) (A) (A) (A) (A) (A) (A)
                 (A) (A) (A) (A) (A) (A) (A) (A) (A) (A) (A) (A)
                 (A) (A) (A) (A) (A) (A) (A) (A) (A) (A) (A) (A)
                 (A) (A) (A) (A) (A) (A) (A) (A) (A) (A) (A) (A)
                 (A) (A) (A) (A) (A) (A) (A) (A) (A) (A) (A) (A)
                 (A) (A) (A) (A) (A) (A) (A) (A) (A) (A) (A) (A)
                 (A) (A) (A) (A) (A) (A) (A) (A) (A) (A) (A) (A)
                 (A) (A) (A) (A) (A) (A) (A) (A) (A) (A) (A) (A)
                 (A) (A) (A) (A) (A) (A) (A) (A) (A) (A) (A) (A)
                 (A) (A) (A) (A) (A) (A) (A) (A) (A) (A) (A) (A)
                 (A) (A) (A) (A) (A) (A) (A) (A) (A) (A) (A) (A)
                 (A) (A) (A) (A) (A) (A) (A) (A) (A) (A) (A) (A)
                 (A) (A) (A) (A) (A) (A) (A) (A) (A) (A) (A) (A)
                 (A) (A) (A) (A) (A) (A) (A) (A) (A) (A) (A) (A)
                 (A) (A) (A) (A) (A) (A) (A) (A) (A) (A) (A) (A)
                 (A) (A) (A) (A) (A) (A) (A) (A) (A) (A) (A) (A)
                 (A) (A) (A) (A) (A) (A) (A) (A) (A) (A) (A) (A)
                 (A) (A) (A) (A) (A) (A) (A) (A) (A) (A) (A) (A)
                 (A) (A) (A) (A) (A) (A) (A) (A) (A) (A) (A) (A)
                 (A) (A) (A) (A) (A) (A) (A) (A) (A) (A) (A) (A)
                 (A) (A) (A) (A) (A) (A) (A) (A) (A) (A) (A) (A)
                 (A) (A) (A) (A) (A) (A) (A) (A) (A) (A) (A) (A)
                 (A) (A) (A) (A) (A) (A) (A) (A) (A) (A) (A) (A)
                 (A) (A) (A) (A) (A) (A) (A) (A) (A) (A) (A) (A)
                 (A) (A) (A) (A) (A) (A) (A) (A) (A) (A) (A) (A)
                 (A) (A) (A) (A) (A) (A) (A) (A) (A) (A) (A) (A)
                 (A) (A) (A) (A) (A) (A) (A) (A) (A) (A) (A) (A)
                 (A) (A) (A) (A) (A) (A) (A) (A) (A) (A) (A) (A)
                 (A) (A) (A) (A) (A) (A) (A) (A) (A) (A) (A) (A)
                 (A) (A) (A) (A) (A) (A) (A) (A) (A) (A) (A) (A)
                 (A) (A) (A) (A) (A) (A) (A) (A) (A) (A) (A) (A)
                 (A) (A) (A) (A) (A) (A) (A) (A) (A) (A) (A) (A)
                 (A) (A) (A) (A) (A) (A) (A) (A) (A) (A) (A) (A)
                 (A) (A) (A) (A) (A) (A) (A) (A) (A) (A) (A) (A)
                 (A) (A) (A) (A) (A) (A) (A) (A) (A) (A) (A) (A)
                 (A) (A) (A) (A) (A) (A) (A) (A) (A) (A) (A) (A)
                 (A) (A) (A) (A) (A) (A) (A) (A) (A) (A) (A) (A)
                 (A) (A) (A) (A) (A) (A) (A) (A) (A) (A) (A) (A)
                 (A) (A) (A) (A) (A) (A) (A) (A) (A) (A) (A) (A)
                 (A) (A) (A) (A) (A) (A) (A) (A) (A) (A) (A) (A)
                 (A) (A) (A) (A) (A) (A) (A) (A) (A) (A) (A) (A)
                 (A) (A) (A) (A) (A) (A) (A) (A) (A) (A) (A) (A)
                 (A) (A) (A) (A) (A) (A) (A) (A) (A) (A) (A) (A)
                 (A) (A) (A) (A) (A) (A) (A) (A) (A) (A) (A) (A)
                 (A) (A) (A) (A) (A) (A) (A) (A) (A) (A) (A) (A)
                 (A) (A) (A) (A) (A) (A) (A) (A) (A) (A) (A) (A)
                 (A) (A) (A) (A) (A) (A) (A) (A) (A) (A) (A) (A)
                 (A) (A) (A) (A) (A) (A) (A) (A) (A) (A) (A) (A)
                 (A) (A) (A) (A) (A) (A) (A) (A) (A) (A) (A) (A)
                 (A) (A) (A) (A) (A) (A) (A) (A) (A) (A) (A) (A)
                 (A) (A) (A) (A) (A) (A) (A) (A) (A) (A) (A) (A)
                 (A) (A) (A) (A) (A) (A) (A) (A) (A) (A) (A) (A)
                 (A) (A) (A) (A) (A) (A) (A) (A) (A) (A) (A) (A)
                 (A) (A) (A) (A) (A) (A) (A) (A) (A) (A) (A) (A)
                 (A) (A) (A) (A) (A) (A) (A) (A) (A) (A) (A) (A)
                 (A) (A) (A) (A) (A) (A) (A) (A) (A) (A) (A) (A)
                 (A) (A) (A) (A) (A) (A) (A) (A) (A) (A) (A) (A)
                 (A) (A) (A) (A) (A) (A) (A) (A) (A) (A) (A) (A)
                 (A) (A) (A) (A) (A) (A) (A) (A) (A) (A) (A) (A)
                 (A) (A) (A) (A) (A) (A) (A) (A) (A) (A) (A) (A)
                 (A) (A) (A) (A) (A) (A) (A) (A) (A) (A) (A) (A)
                 (A) (A) (A) (A) (A) (A) (A) (A) (A) (A) (A) (A)
                 (A) (A) (A) (A) (A) (A) (A) (A) (A) (A) (A) (A)
                 (A) (A) (A) (A) (A) (A) (A) (A) (A) (A) (A) (A)
                 (A) (A) (A) (A) (A) (A) (A) (A) (A) (A) (A) (A)
                 (A) (A) (A) (A) (A) (A) (A) (A) (A) (A) (A) (A)
                 (A) (A) (A) (A) (A) (A) (A) (A) (A) (A) (A) (A)
                 (A) (A) (A) (A) (A) (A) (A) (A) (A) (A) (A) (A)
                 (A) (A) (A) (A) (A) (A) (A) (A) (A) (A) (A) (A)
                 (A) (A) (A) (A) (A) (A) (A) (A) (A) (A) (A) (A)
                 (A) (A) (A) (A) (A) (A) (A) (A) (A) (A) (A) (A)
                 (A) (A) (A) (A) (A) (A) (A) (A) (A) (A) (A) (A)
                 (A) (A) (A) (A) (A) (A) (A) (A) (A) (A) (A) (A)
                 (A) (A) (A) (A) (A) (A) (A) (A) (A) (A) (A) (A)
                 (A) (A) (A) (A) (A) (A) (A) (A) (A) (A) (A) (A)
                 (A) (A) (A) (A) (A) (A) (A) (A) (A) (A) (A) (A)
                 (A) (A) (A) (A) (A) (A) (A) (A) (A) (A) (A) (A)
                 (A) (A) (A) (A) (A) (A) (A) (A) (A) (A) (A) (A)
                 (A) (A) (A) (A) (A) (A) (A) (A) (A) (A) (A) (A)
                 (A) (A) (A) (A) (A) (A) (A) (A) (A) (A) (A) (A)
                 (A) (A) (A) (A) (A) (A) (A) (A) (A) (A) (A) (A)
                 (A) (A) (A) (A) (A) (A) (A) (A) (A) (A) (A) (A)
                 (A) (A) (A) (A) (A) (A) (A) (A) (A) (A) (A) (A)
                 (A) (A) (A) (A) (A) (A) (A) (A) (A) (A) (A) (A)
                 (A) (A) (A) (A) (A) (A) (A) (A) (A) (A) (A) (A)
                 (A) (A) (A) (A) (A) (A) (A) (A) (A) (A) (A) (A)
                 (A) (A) (A) (A) (A) (A) (A) (A) (A) (A) (A) (A)
                 (A) (A) (A) (A) (A) (A) (A) (A) (A) (A) (A) (A)
                 (A) (A) (A) (A) (A) (A) (A) (A) (A) (A) (A) (A)
                 (A) (A) (A) (A) (A) (A) (A) (A) (A) (A) (A) (A)
                 (A) (A) (A) (A) (A) (A) (A) (A) (A) (A) (A) (A)
                 (A) (A) (A) (A) (A) (A) (A) (A) (A) (A) (A) (A)
                 (A) (A) (A) (A) (A) (A) (A) (A) (A) (A) (A) (A)
                 (A) (A) (A) (A) (A) (A) (A) (A) (A) (A) (A) (A)
                 (A) (A) (A) (A) (A) (A) (A) (A) (A) (A) (A) (A)
                 (A) (A) (A) (A) (A) (A) (A) (A) (A) (A) (A) (A)
                 (A) (A) (A) (A) (A) (A) (A) (A) (A) (A) (A) (A)
                 (A) (A) (A) (A) (A) (A) (A) (A) (A) (A) (A) (A)
                 (A) (A) (A) (A) (A) (A) (A) (A) (A) (A) (A) (A)
                 (A) (A) (A) (A) (A) (A) (A) (A) (A) (A) (A) (A)
                 (A) (A) (A) (A) (A) (A) (A) (A) (A) (A) (A) (A)
                 (A) (A) (A) (A) (A) (A) (A) (A) (A) (A) (A) (A)
                 (A) (A) (A) (A) (A) (A) (A) (A) (A) (A) (A) (A)
                 (A) (A) (A) (A) (A) (A) (A) (A) (A) (A) (A)
 The electronic state is 2-A.
 Alpha  occ. eigenvalues -- -256.42390 -89.12827 -30.19753 -26.02608 -26.02338
 Alpha  occ. eigenvalues --  -26.01882 -19.33767 -19.33458 -19.25669 -19.24329
 Alpha  occ. eigenvalues --  -14.53004 -14.49832 -14.48938 -14.48013 -14.47578
 Alpha  occ. eigenvalues --  -14.47222 -10.43061 -10.42184 -10.36746 -10.36589
 Alpha  occ. eigenvalues --  -10.36124 -10.35932 -10.35927 -10.35453 -10.35424
 Alpha  occ. eigenvalues --  -10.35354 -10.35179 -10.34596 -10.33575 -10.33195
 Alpha  occ. eigenvalues --  -10.32934 -10.32883 -10.32720 -10.32694 -10.32417
 Alpha  occ. eigenvalues --  -10.32341 -10.32300 -10.32223 -10.32169 -10.32107
 Alpha  occ. eigenvalues --  -10.32040 -10.32029 -10.31922 -10.31358 -10.31111
 Alpha  occ. eigenvalues --  -10.31046 -10.30907 -10.30894 -10.30489 -10.30484
 Alpha  occ. eigenvalues --  -10.30276 -10.30102 -10.29972 -10.29537  -8.11182
 Alpha  occ. eigenvalues --   -6.04841  -6.04505  -6.03990  -3.54378  -2.30639
 Alpha  occ. eigenvalues --   -2.30155  -2.29212  -1.24528  -1.23243  -1.14554
 Alpha  occ. eigenvalues --   -1.10957  -1.09793  -1.08656  -1.08551  -1.07656
 Alpha  occ. eigenvalues --   -1.06521  -0.99355  -0.95012  -0.93811  -0.93219
 Alpha  occ. eigenvalues --   -0.92514  -0.92277  -0.91818  -0.91035  -0.89268
 Alpha  occ. eigenvalues --   -0.88913  -0.88023  -0.87506  -0.87206  -0.86621
 Alpha  occ. eigenvalues --   -0.85895  -0.84019  -0.81931  -0.81619  -0.81477
 Alpha  occ. eigenvalues --   -0.80560  -0.78796  -0.78159  -0.77807  -0.75911
 Alpha  occ. eigenvalues --   -0.75275  -0.74928  -0.73008  -0.72614  -0.70827
 Alpha  occ. eigenvalues --   -0.70477  -0.70138  -0.69418  -0.68188  -0.65937
 Alpha  occ. eigenvalues --   -0.65325  -0.65044  -0.64763  -0.63995  -0.62773
 Alpha  occ. eigenvalues --   -0.61955  -0.61619  -0.61240  -0.60953  -0.60266
 Alpha  occ. eigenvalues --   -0.59317  -0.58780  -0.58181  -0.57896  -0.57303
 Alpha  occ. eigenvalues --   -0.57173  -0.56426  -0.56354  -0.56011  -0.55747
 Alpha  occ. eigenvalues --   -0.55652  -0.55235  -0.54743  -0.54581  -0.54470
 Alpha  occ. eigenvalues --   -0.54094  -0.53917  -0.53537  -0.53463  -0.53096
 Alpha  occ. eigenvalues --   -0.52793  -0.52672  -0.52345  -0.52164  -0.51946
 Alpha  occ. eigenvalues --   -0.51674  -0.51320  -0.51053  -0.50884  -0.50649
 Alpha  occ. eigenvalues --   -0.50505  -0.50456  -0.50413  -0.50070  -0.49812
 Alpha  occ. eigenvalues --   -0.49310  -0.49101  -0.48838  -0.48525  -0.48441
 Alpha  occ. eigenvalues --   -0.48166  -0.47661  -0.47543  -0.47050  -0.46849
 Alpha  occ. eigenvalues --   -0.46127  -0.45786  -0.45275  -0.44947  -0.44427
 Alpha  occ. eigenvalues --   -0.44077  -0.43546  -0.43363  -0.42892  -0.42365
 Alpha  occ. eigenvalues --   -0.41915  -0.41179  -0.41034  -0.40822  -0.39595
 Alpha  occ. eigenvalues --   -0.39236  -0.38933  -0.38674  -0.38257  -0.36405
 Alpha  occ. eigenvalues --   -0.36113  -0.35258  -0.34834  -0.33756  -0.32814
 Alpha  occ. eigenvalues --   -0.32648  -0.31398  -0.30710  -0.29872  -0.29015
 Alpha  occ. eigenvalues --   -0.28811  -0.27385
 Alpha virt. eigenvalues --   -0.17484  -0.16177  -0.14236  -0.12650  -0.10611
 Alpha virt. eigenvalues --   -0.09655  -0.08348  -0.08010  -0.06976  -0.06429
 Alpha virt. eigenvalues --   -0.06205  -0.05679  -0.04736  -0.04039  -0.03885
 Alpha virt. eigenvalues --   -0.03721  -0.03342  -0.03204  -0.02866  -0.02606
 Alpha virt. eigenvalues --   -0.02265  -0.02020  -0.01803  -0.01482  -0.01153
 Alpha virt. eigenvalues --   -0.01000  -0.00876  -0.00339   0.00230   0.00394
 Alpha virt. eigenvalues --    0.00610   0.00895   0.01136   0.01337   0.01626
 Alpha virt. eigenvalues --    0.01862   0.02192   0.02521   0.03127   0.03170
 Alpha virt. eigenvalues --    0.03408   0.03629   0.03698   0.03825   0.04183
 Alpha virt. eigenvalues --    0.04760   0.04956   0.04984   0.05251   0.05446
 Alpha virt. eigenvalues --    0.05661   0.05880   0.06090   0.06268   0.06545
 Alpha virt. eigenvalues --    0.06686   0.06831   0.06891   0.07106   0.07454
 Alpha virt. eigenvalues --    0.07660   0.07814   0.08024   0.08278   0.08503
 Alpha virt. eigenvalues --    0.08627   0.08969   0.09118   0.09309   0.09559
 Alpha virt. eigenvalues --    0.09824   0.10175   0.10404   0.10517   0.10774
 Alpha virt. eigenvalues --    0.11040   0.11342   0.11512   0.11778   0.11940
 Alpha virt. eigenvalues --    0.12059   0.12147   0.12367   0.12764   0.13237
 Alpha virt. eigenvalues --    0.13413   0.13616   0.13868   0.14132   0.14280
 Alpha virt. eigenvalues --    0.14381   0.14478   0.14689   0.15028   0.15221
 Alpha virt. eigenvalues --    0.15366   0.15690   0.16092   0.16220   0.16412
 Alpha virt. eigenvalues --    0.16535   0.17052   0.17083   0.17299   0.17555
 Alpha virt. eigenvalues --    0.17758   0.18034   0.18267   0.18417   0.18491
 Alpha virt. eigenvalues --    0.18819   0.19280   0.19436   0.19738   0.19992
 Alpha virt. eigenvalues --    0.20113   0.20146   0.20596   0.20670   0.21126
 Alpha virt. eigenvalues --    0.21532   0.21699   0.22009   0.22141   0.22491
 Alpha virt. eigenvalues --    0.22710   0.22757   0.23042   0.23185   0.23388
 Alpha virt. eigenvalues --    0.23706   0.23833   0.23923   0.24083   0.24457
 Alpha virt. eigenvalues --    0.24519   0.24797   0.25086   0.25646   0.25876
 Alpha virt. eigenvalues --    0.26009   0.26442   0.26835   0.26989   0.27192
 Alpha virt. eigenvalues --    0.27320   0.27509   0.27629   0.28176   0.28375
 Alpha virt. eigenvalues --    0.28820   0.28847   0.29063   0.29298   0.29322
 Alpha virt. eigenvalues --    0.29650   0.29707   0.30023   0.30265   0.30539
 Alpha virt. eigenvalues --    0.30793   0.30968   0.31211   0.31486   0.31727
 Alpha virt. eigenvalues --    0.31769   0.31870   0.32315   0.32473   0.32623
 Alpha virt. eigenvalues --    0.32826   0.32975   0.33189   0.33202   0.33306
 Alpha virt. eigenvalues --    0.33504   0.33648   0.33951   0.34270   0.34392
 Alpha virt. eigenvalues --    0.34656   0.34777   0.35007   0.35030   0.35346
 Alpha virt. eigenvalues --    0.35701   0.35832   0.36036   0.36281   0.36540
 Alpha virt. eigenvalues --    0.36688   0.36922   0.37073   0.37153   0.37367
 Alpha virt. eigenvalues --    0.37638   0.37709   0.37888   0.38144   0.38324
 Alpha virt. eigenvalues --    0.38424   0.38516   0.38751   0.38860   0.39232
 Alpha virt. eigenvalues --    0.39537   0.39699   0.39811   0.39971   0.40033
 Alpha virt. eigenvalues --    0.40264   0.40479   0.40621   0.40861   0.41015
 Alpha virt. eigenvalues --    0.41100   0.41219   0.41394   0.41621   0.42074
 Alpha virt. eigenvalues --    0.42347   0.42391   0.42638   0.42702   0.42902
 Alpha virt. eigenvalues --    0.43057   0.43341   0.43517   0.43751   0.43864
 Alpha virt. eigenvalues --    0.44104   0.44256   0.44457   0.44612   0.44728
 Alpha virt. eigenvalues --    0.45025   0.45243   0.45321   0.45743   0.45959
 Alpha virt. eigenvalues --    0.46097   0.46240   0.46533   0.46679   0.46949
 Alpha virt. eigenvalues --    0.47345   0.47520   0.47760   0.47924   0.48046
 Alpha virt. eigenvalues --    0.48319   0.48505   0.48598   0.48970   0.49104
 Alpha virt. eigenvalues --    0.49663   0.49802   0.49932   0.50219   0.50550
 Alpha virt. eigenvalues --    0.50832   0.51118   0.51182   0.51365   0.51956
 Alpha virt. eigenvalues --    0.52126   0.52254   0.52460   0.52723   0.52962
 Alpha virt. eigenvalues --    0.53198   0.53238   0.53575   0.53855   0.53910
 Alpha virt. eigenvalues --    0.54497   0.54655   0.54875   0.55329   0.55492
 Alpha virt. eigenvalues --    0.55867   0.56670   0.56700   0.56894   0.57194
 Alpha virt. eigenvalues --    0.57297   0.57536   0.57703   0.58235   0.58258
 Alpha virt. eigenvalues --    0.58727   0.58858   0.59156   0.59502   0.59717
 Alpha virt. eigenvalues --    0.59838   0.60261   0.60472   0.60586   0.61108
 Alpha virt. eigenvalues --    0.61383   0.61572   0.61952   0.62247   0.62597
 Alpha virt. eigenvalues --    0.62911   0.62977   0.63310   0.63625   0.63709
 Alpha virt. eigenvalues --    0.64115   0.64597   0.64731   0.65122   0.65275
 Alpha virt. eigenvalues --    0.65322   0.66069   0.66109   0.66295   0.66639
 Alpha virt. eigenvalues --    0.67122   0.67327   0.67556   0.68093   0.68611
 Alpha virt. eigenvalues --    0.68884   0.69337   0.69554   0.69802   0.70145
 Alpha virt. eigenvalues --    0.70245   0.70511   0.70896   0.71160   0.71628
 Alpha virt. eigenvalues --    0.71716   0.72373   0.72467   0.73060   0.73398
 Alpha virt. eigenvalues --    0.73723   0.73801   0.73896   0.74446   0.74718
 Alpha virt. eigenvalues --    0.74932   0.75446   0.76003   0.76255   0.76336
 Alpha virt. eigenvalues --    0.76604   0.76917   0.77297   0.77670   0.77939
 Alpha virt. eigenvalues --    0.78268   0.78491   0.78615   0.78796   0.79262
 Alpha virt. eigenvalues --    0.79667   0.79750   0.80042   0.80475   0.80738
 Alpha virt. eigenvalues --    0.81016   0.81466   0.81770   0.82166   0.82626
 Alpha virt. eigenvalues --    0.82956   0.83420   0.83649   0.83832   0.84001
 Alpha virt. eigenvalues --    0.84237   0.84627   0.84886   0.85122   0.85353
 Alpha virt. eigenvalues --    0.85634   0.85707   0.86387   0.86676   0.86976
 Alpha virt. eigenvalues --    0.87091   0.87114   0.87638   0.87871   0.87915
 Alpha virt. eigenvalues --    0.88454   0.88825   0.89069   0.89406   0.89465
 Alpha virt. eigenvalues --    0.89694   0.90026   0.90118   0.90599   0.90832
 Alpha virt. eigenvalues --    0.91189   0.91273   0.91656   0.91836   0.92073
 Alpha virt. eigenvalues --    0.92379   0.92677   0.93462   0.93681   0.94042
 Alpha virt. eigenvalues --    0.94271   0.94657   0.94754   0.95107   0.95263
 Alpha virt. eigenvalues --    0.95650   0.95777   0.96022   0.96252   0.96437
 Alpha virt. eigenvalues --    0.97046   0.97283   0.97619   0.98031   0.98122
 Alpha virt. eigenvalues --    0.98705   0.98905   0.99236   0.99399   1.00224
 Alpha virt. eigenvalues --    1.00536   1.00848   1.01212   1.01560   1.01776
 Alpha virt. eigenvalues --    1.02113   1.02215   1.02805   1.02970   1.03368
 Alpha virt. eigenvalues --    1.03478   1.04051   1.04228   1.04890   1.05000
 Alpha virt. eigenvalues --    1.05439   1.05674   1.06108   1.06571   1.06936
 Alpha virt. eigenvalues --    1.07441   1.07837   1.08212   1.08324   1.08782
 Alpha virt. eigenvalues --    1.09178   1.09837   1.10136   1.10360   1.10948
 Alpha virt. eigenvalues --    1.11102   1.11150   1.11704   1.12402   1.12519
 Alpha virt. eigenvalues --    1.13052   1.13427   1.13621   1.14020   1.14231
 Alpha virt. eigenvalues --    1.14359   1.14896   1.15342   1.15607   1.16108
 Alpha virt. eigenvalues --    1.16551   1.16585   1.16859   1.17174   1.17251
 Alpha virt. eigenvalues --    1.17625   1.18099   1.18923   1.19197   1.19586
 Alpha virt. eigenvalues --    1.20155   1.20255   1.20480   1.21200   1.21301
 Alpha virt. eigenvalues --    1.21554   1.22255   1.22617   1.23091   1.23288
 Alpha virt. eigenvalues --    1.23465   1.23933   1.24300   1.25170   1.25309
 Alpha virt. eigenvalues --    1.25483   1.25801   1.26049   1.27021   1.27302
 Alpha virt. eigenvalues --    1.27417   1.27735   1.28075   1.28273   1.28452
 Alpha virt. eigenvalues --    1.29078   1.29324   1.29845   1.30345   1.30848
 Alpha virt. eigenvalues --    1.31260   1.31455   1.31928   1.32300   1.32644
 Alpha virt. eigenvalues --    1.33011   1.33313   1.33593   1.34056   1.34505
 Alpha virt. eigenvalues --    1.34758   1.35179   1.35655   1.35773   1.36148
 Alpha virt. eigenvalues --    1.36588   1.37237   1.37645   1.37812   1.37938
 Alpha virt. eigenvalues --    1.38394   1.38942   1.39136   1.39482   1.39779
 Alpha virt. eigenvalues --    1.39866   1.40364   1.40907   1.41014   1.41498
 Alpha virt. eigenvalues --    1.41944   1.42306   1.42447   1.43033   1.43460
 Alpha virt. eigenvalues --    1.43687   1.43834   1.44102   1.44793   1.44963
 Alpha virt. eigenvalues --    1.45207   1.45348   1.45557   1.45790   1.45927
 Alpha virt. eigenvalues --    1.46248   1.46548   1.46743   1.46932   1.47246
 Alpha virt. eigenvalues --    1.47651   1.48013   1.48301   1.48576   1.48687
 Alpha virt. eigenvalues --    1.48913   1.49309   1.49504   1.49784   1.50010
 Alpha virt. eigenvalues --    1.50540   1.51003   1.51318   1.51621   1.51674
 Alpha virt. eigenvalues --    1.52124   1.52502   1.52727   1.52903   1.53451
 Alpha virt. eigenvalues --    1.53584   1.54012   1.54165   1.54366   1.54557
 Alpha virt. eigenvalues --    1.54861   1.55105   1.55545   1.55812   1.56024
 Alpha virt. eigenvalues --    1.56317   1.56526   1.56950   1.57129   1.57352
 Alpha virt. eigenvalues --    1.57481   1.57716   1.57914   1.58112   1.58404
 Alpha virt. eigenvalues --    1.58709   1.59096   1.59190   1.59304   1.59751
 Alpha virt. eigenvalues --    1.60294   1.60453   1.60829   1.61405   1.61630
 Alpha virt. eigenvalues --    1.61864   1.62320   1.62561   1.62908   1.63075
 Alpha virt. eigenvalues --    1.63502   1.63645   1.64107   1.64504   1.64637
 Alpha virt. eigenvalues --    1.64942   1.65398   1.65853   1.65913   1.66118
 Alpha virt. eigenvalues --    1.66467   1.66936   1.67166   1.67538   1.67751
 Alpha virt. eigenvalues --    1.68085   1.68652   1.69188   1.69241   1.69827
 Alpha virt. eigenvalues --    1.70006   1.70572   1.71146   1.71788   1.71919
 Alpha virt. eigenvalues --    1.72330   1.72542   1.72881   1.73038   1.73432
 Alpha virt. eigenvalues --    1.73733   1.74275   1.74432   1.74866   1.75184
 Alpha virt. eigenvalues --    1.75245   1.75733   1.75863   1.76189   1.76505
 Alpha virt. eigenvalues --    1.76989   1.77335   1.77922   1.78082   1.78549
 Alpha virt. eigenvalues --    1.79492   1.79726   1.79838   1.80577   1.81012
 Alpha virt. eigenvalues --    1.81139   1.81741   1.82068   1.82534   1.82923
 Alpha virt. eigenvalues --    1.83621   1.83720   1.83863   1.84534   1.85000
 Alpha virt. eigenvalues --    1.85260   1.85692   1.85707   1.86392   1.87043
 Alpha virt. eigenvalues --    1.87157   1.87438   1.87941   1.88214   1.88515
 Alpha virt. eigenvalues --    1.88870   1.89119   1.89512   1.89804   1.90204
 Alpha virt. eigenvalues --    1.90766   1.91222   1.91538   1.91780   1.92005
 Alpha virt. eigenvalues --    1.92630   1.92704   1.92981   1.93656   1.93698
 Alpha virt. eigenvalues --    1.94453   1.94608   1.95094   1.95557   1.95833
 Alpha virt. eigenvalues --    1.96332   1.96522   1.96864   1.97020   1.97656
 Alpha virt. eigenvalues --    1.98120   1.98180   1.98756   1.98967   1.99342
 Alpha virt. eigenvalues --    1.99506   2.00415   2.00781   2.00864   2.01230
 Alpha virt. eigenvalues --    2.01279   2.02283   2.02393   2.02834   2.03449
 Alpha virt. eigenvalues --    2.03675   2.03819   2.04157   2.04970   2.05275
 Alpha virt. eigenvalues --    2.05582   2.05971   2.06156   2.06558   2.07057
 Alpha virt. eigenvalues --    2.07100   2.07578   2.08287   2.08494   2.08905
 Alpha virt. eigenvalues --    2.09067   2.09160   2.09714   2.10201   2.10683
 Alpha virt. eigenvalues --    2.11131   2.11304   2.11871   2.12503   2.12988
 Alpha virt. eigenvalues --    2.13252   2.13560   2.14148   2.14197   2.15016
 Alpha virt. eigenvalues --    2.15165   2.15241   2.15507   2.16038   2.16665
 Alpha virt. eigenvalues --    2.16919   2.17093   2.17557   2.17955   2.18353
 Alpha virt. eigenvalues --    2.18686   2.18933   2.19570   2.20069   2.20122
 Alpha virt. eigenvalues --    2.20621   2.21028   2.21238   2.21305   2.21826
 Alpha virt. eigenvalues --    2.22181   2.22785   2.22892   2.23479   2.23986
 Alpha virt. eigenvalues --    2.24256   2.24518   2.24903   2.25626   2.25880
 Alpha virt. eigenvalues --    2.26362   2.26877   2.27197   2.27644   2.27837
 Alpha virt. eigenvalues --    2.28158   2.28382   2.28512   2.29067   2.29260
 Alpha virt. eigenvalues --    2.29829   2.29878   2.30490   2.30746   2.31075
 Alpha virt. eigenvalues --    2.31346   2.31644   2.32356   2.32805   2.33693
 Alpha virt. eigenvalues --    2.33785   2.33944   2.34341   2.35089   2.35204
 Alpha virt. eigenvalues --    2.35638   2.36166   2.36626   2.36920   2.37151
 Alpha virt. eigenvalues --    2.37276   2.38326   2.38734   2.39442   2.39688
 Alpha virt. eigenvalues --    2.40085   2.40373   2.40607   2.41448   2.41648
 Alpha virt. eigenvalues --    2.42217   2.42604   2.42934   2.43270   2.43821
 Alpha virt. eigenvalues --    2.44292   2.44568   2.44688   2.45207   2.45591
 Alpha virt. eigenvalues --    2.45789   2.46056   2.46474   2.46789   2.47419
 Alpha virt. eigenvalues --    2.47654   2.47878   2.48197   2.48743   2.48979
 Alpha virt. eigenvalues --    2.49276   2.49442   2.49592   2.50151   2.50413
 Alpha virt. eigenvalues --    2.50479   2.50657   2.50820   2.51340   2.51575
 Alpha virt. eigenvalues --    2.51737   2.52350   2.52505   2.52942   2.53288
 Alpha virt. eigenvalues --    2.53994   2.54218   2.54353   2.54822   2.55093
 Alpha virt. eigenvalues --    2.55534   2.55590   2.55785   2.56115   2.56319
 Alpha virt. eigenvalues --    2.56840   2.57148   2.57476   2.58027   2.58212
 Alpha virt. eigenvalues --    2.58672   2.58750   2.59339   2.60294   2.60662
 Alpha virt. eigenvalues --    2.60821   2.61172   2.61572   2.61990   2.62369
 Alpha virt. eigenvalues --    2.62459   2.62892   2.63261   2.63614   2.64145
 Alpha virt. eigenvalues --    2.64317   2.64462   2.64835   2.65156   2.65300
 Alpha virt. eigenvalues --    2.66050   2.66086   2.66197   2.67036   2.67385
 Alpha virt. eigenvalues --    2.67935   2.67993   2.68302   2.68664   2.69220
 Alpha virt. eigenvalues --    2.69434   2.69995   2.70356   2.70564   2.70670
 Alpha virt. eigenvalues --    2.70980   2.71295   2.72087   2.72243   2.72497
 Alpha virt. eigenvalues --    2.72953   2.73311   2.73645   2.73737   2.74031
 Alpha virt. eigenvalues --    2.74480   2.74880   2.75545   2.75904   2.76126
 Alpha virt. eigenvalues --    2.76645   2.76710   2.77166   2.77337   2.77592
 Alpha virt. eigenvalues --    2.77989   2.78620   2.79064   2.79685   2.79899
 Alpha virt. eigenvalues --    2.80399   2.80689   2.81061   2.81398   2.81759
 Alpha virt. eigenvalues --    2.82021   2.82171   2.82481   2.83039   2.83278
 Alpha virt. eigenvalues --    2.83543   2.83795   2.84525   2.84696   2.85253
 Alpha virt. eigenvalues --    2.85451   2.85593   2.85834   2.85995   2.86796
 Alpha virt. eigenvalues --    2.87341   2.87559   2.87704   2.88078   2.88514
 Alpha virt. eigenvalues --    2.89038   2.89073   2.89614   2.89686   2.89894
 Alpha virt. eigenvalues --    2.90569   2.90866   2.91290   2.91493   2.92028
 Alpha virt. eigenvalues --    2.92457   2.92697   2.92901   2.93275   2.93934
 Alpha virt. eigenvalues --    2.94202   2.94485   2.94861   2.95292   2.95397
 Alpha virt. eigenvalues --    2.95671   2.96102   2.96361   2.97010   2.97131
 Alpha virt. eigenvalues --    2.97455   2.97561   2.97946   2.98284   2.98599
 Alpha virt. eigenvalues --    2.98678   2.99113   2.99161   2.99464   2.99854
 Alpha virt. eigenvalues --    2.99892   3.00322   3.00507   3.00892   3.01202
 Alpha virt. eigenvalues --    3.01294   3.01625   3.01719   3.02370   3.02467
 Alpha virt. eigenvalues --    3.02644   3.02687   3.03267   3.03504   3.03951
 Alpha virt. eigenvalues --    3.04088   3.04557   3.05108   3.05350   3.05412
 Alpha virt. eigenvalues --    3.05835   3.06099   3.06386   3.06692   3.06780
 Alpha virt. eigenvalues --    3.07273   3.07493   3.08139   3.08428   3.08682
 Alpha virt. eigenvalues --    3.08979   3.09106   3.09448   3.09646   3.09956
 Alpha virt. eigenvalues --    3.10284   3.10426   3.11145   3.11181   3.11227
 Alpha virt. eigenvalues --    3.11635   3.11799   3.12097   3.12392   3.12729
 Alpha virt. eigenvalues --    3.12949   3.13139   3.13265   3.13527   3.13945
 Alpha virt. eigenvalues --    3.14253   3.14591   3.14678   3.14834   3.14931
 Alpha virt. eigenvalues --    3.15183   3.15696   3.15729   3.16022   3.16156
 Alpha virt. eigenvalues --    3.16584   3.16930   3.17043   3.17470   3.17595
 Alpha virt. eigenvalues --    3.17604   3.18145   3.18764   3.18881   3.19160
 Alpha virt. eigenvalues --    3.19257   3.19554   3.19612   3.19840   3.20401
 Alpha virt. eigenvalues --    3.20778   3.20977   3.21246   3.21422   3.21884
 Alpha virt. eigenvalues --    3.22238   3.22719   3.23076   3.23237   3.23517
 Alpha virt. eigenvalues --    3.23613   3.24008   3.24218   3.24419   3.24799
 Alpha virt. eigenvalues --    3.25109   3.25591   3.26032   3.26273   3.26672
 Alpha virt. eigenvalues --    3.26827   3.27031   3.27294   3.27564   3.27889
 Alpha virt. eigenvalues --    3.28008   3.28205   3.28874   3.28958   3.29156
 Alpha virt. eigenvalues --    3.29573   3.30030   3.30143   3.30223   3.30453
 Alpha virt. eigenvalues --    3.30699   3.30874   3.31360   3.31755   3.32051
 Alpha virt. eigenvalues --    3.32245   3.32691   3.33106   3.33251   3.33731
 Alpha virt. eigenvalues --    3.33975   3.34129   3.34673   3.34906   3.35164
 Alpha virt. eigenvalues --    3.35310   3.35808   3.35878   3.36403   3.36689
 Alpha virt. eigenvalues --    3.37203   3.37288   3.37443   3.38295   3.38701
 Alpha virt. eigenvalues --    3.38970   3.39166   3.39486   3.39581   3.39936
 Alpha virt. eigenvalues --    3.40318   3.40850   3.40906   3.41400   3.42075
 Alpha virt. eigenvalues --    3.42227   3.42278   3.42794   3.42934   3.43039
 Alpha virt. eigenvalues --    3.43585   3.43785   3.44113   3.44618   3.44829
 Alpha virt. eigenvalues --    3.45227   3.45495   3.46149   3.46472   3.46904
 Alpha virt. eigenvalues --    3.47192   3.47341   3.47794   3.48269   3.48357
 Alpha virt. eigenvalues --    3.48559   3.49563   3.49778   3.50337   3.50709
 Alpha virt. eigenvalues --    3.51061   3.51434   3.51825   3.51993   3.52194
 Alpha virt. eigenvalues --    3.52433   3.52767   3.53382   3.53916   3.54134
 Alpha virt. eigenvalues --    3.54339   3.54653   3.55054   3.55291   3.55747
 Alpha virt. eigenvalues --    3.56087   3.56390   3.56860   3.57530   3.57813
 Alpha virt. eigenvalues --    3.58149   3.58397   3.58859   3.59042   3.59498
 Alpha virt. eigenvalues --    3.59719   3.60381   3.60838   3.61013   3.61549
 Alpha virt. eigenvalues --    3.62188   3.63032   3.63196   3.63640   3.64022
 Alpha virt. eigenvalues --    3.64226   3.64821   3.64971   3.65321   3.65446
 Alpha virt. eigenvalues --    3.65908   3.66181   3.66470   3.66582   3.67156
 Alpha virt. eigenvalues --    3.67981   3.68162   3.68484   3.68919   3.69536
 Alpha virt. eigenvalues --    3.69974   3.70269   3.70949   3.71653   3.71995
 Alpha virt. eigenvalues --    3.72303   3.72865   3.73448   3.74321   3.74487
 Alpha virt. eigenvalues --    3.75305   3.75723   3.76110   3.76872   3.77052
 Alpha virt. eigenvalues --    3.77272   3.77823   3.78538   3.79230   3.79814
 Alpha virt. eigenvalues --    3.79854   3.80353   3.81357   3.81436   3.81620
 Alpha virt. eigenvalues --    3.82108   3.82422   3.83448   3.84529   3.85006
 Alpha virt. eigenvalues --    3.85344   3.86142   3.86779   3.87004   3.87581
 Alpha virt. eigenvalues --    3.88397   3.88566   3.89008   3.89577   3.90199
 Alpha virt. eigenvalues --    3.90829   3.91404   3.91754   3.92402   3.93407
 Alpha virt. eigenvalues --    3.93493   3.93932   3.94196   3.94688   3.95215
 Alpha virt. eigenvalues --    3.95346   3.95990   3.96463   3.97488   3.97878
 Alpha virt. eigenvalues --    3.98499   3.98799   3.99713   4.00349   4.00589
 Alpha virt. eigenvalues --    4.00895   4.01655   4.01802   4.02798   4.03259
 Alpha virt. eigenvalues --    4.03765   4.04072   4.04429   4.05359   4.05889
 Alpha virt. eigenvalues --    4.06570   4.06801   4.07009   4.08015   4.08293
 Alpha virt. eigenvalues --    4.08995   4.09368   4.09603   4.10616   4.11209
 Alpha virt. eigenvalues --    4.11699   4.12091   4.12686   4.12927   4.13900
 Alpha virt. eigenvalues --    4.14154   4.15426   4.15649   4.15808   4.16438
 Alpha virt. eigenvalues --    4.17327   4.17584   4.18830   4.19636   4.19706
 Alpha virt. eigenvalues --    4.19794   4.20541   4.21293   4.21884   4.22066
 Alpha virt. eigenvalues --    4.22681   4.23333   4.23872   4.24433   4.24748
 Alpha virt. eigenvalues --    4.25314   4.26014   4.27136   4.27570   4.28023
 Alpha virt. eigenvalues --    4.28216   4.28690   4.29242   4.29770   4.29893
 Alpha virt. eigenvalues --    4.30188   4.30596   4.31283   4.31753   4.32163
 Alpha virt. eigenvalues --    4.32822   4.33780   4.34255   4.34771   4.35093
 Alpha virt. eigenvalues --    4.35877   4.36070   4.36887   4.37340   4.37647
 Alpha virt. eigenvalues --    4.38115   4.38449   4.39293   4.39891   4.40447
 Alpha virt. eigenvalues --    4.41941   4.42024   4.43177   4.43551   4.43643
 Alpha virt. eigenvalues --    4.45068   4.45674   4.45699   4.46893   4.47245
 Alpha virt. eigenvalues --    4.47822   4.48141   4.48971   4.49991   4.50621
 Alpha virt. eigenvalues --    4.51055   4.52125   4.53005   4.53314   4.54143
 Alpha virt. eigenvalues --    4.54845   4.55374   4.56298   4.56399   4.56954
 Alpha virt. eigenvalues --    4.57468   4.58578   4.58993   4.59438   4.60503
 Alpha virt. eigenvalues --    4.60887   4.61168   4.61970   4.62456   4.62911
 Alpha virt. eigenvalues --    4.64159   4.64843   4.65335   4.66101   4.66309
 Alpha virt. eigenvalues --    4.67331   4.67515   4.68128   4.68741   4.69341
 Alpha virt. eigenvalues --    4.70741   4.70842   4.71386   4.72361   4.72879
 Alpha virt. eigenvalues --    4.73113   4.73630   4.74281   4.75035   4.76172
 Alpha virt. eigenvalues --    4.76857   4.77261   4.78756   4.79602   4.80709
 Alpha virt. eigenvalues --    4.81274   4.82226   4.82551   4.82894   4.83896
 Alpha virt. eigenvalues --    4.84801   4.86488   4.86642   4.87680   4.87836
 Alpha virt. eigenvalues --    4.88571   4.89534   4.90017   4.90614   4.91328
 Alpha virt. eigenvalues --    4.93239   4.93766   4.94251   4.95286   4.95964
 Alpha virt. eigenvalues --    4.96381   4.97404   4.97961   4.98437   4.99983
 Alpha virt. eigenvalues --    5.00560   5.01949   5.02637   5.03154   5.04024
 Alpha virt. eigenvalues --    5.04861   5.05593   5.07880   5.08778   5.09207
 Alpha virt. eigenvalues --    5.09719   5.11183   5.12011   5.12384   5.13156
 Alpha virt. eigenvalues --    5.13883   5.14248   5.14960   5.15115   5.15761
 Alpha virt. eigenvalues --    5.15979   5.16535   5.17098   5.18387   5.20210
 Alpha virt. eigenvalues --    5.21103   5.21489   5.22790   5.23088   5.24175
 Alpha virt. eigenvalues --    5.24397   5.25862   5.26625   5.26985   5.28820
 Alpha virt. eigenvalues --    5.29554   5.30305   5.30763   5.32691   5.33462
 Alpha virt. eigenvalues --    5.34824   5.34965   5.36281   5.37312   5.39280
 Alpha virt. eigenvalues --    5.39751   5.41723   5.42422   5.42992   5.45005
 Alpha virt. eigenvalues --    5.46374   5.47107   5.47737   5.48587   5.49335
 Alpha virt. eigenvalues --    5.49780   5.50446   5.52086   5.53721   5.54816
 Alpha virt. eigenvalues --    5.55320   5.57064   5.58246   5.58492   5.61014
 Alpha virt. eigenvalues --    5.61725   5.63552   5.65579   5.66215   5.67721
 Alpha virt. eigenvalues --    5.69834   5.70161   5.71965   5.77228   5.78586
 Alpha virt. eigenvalues --    5.83439   5.85245   5.86211   5.89021   5.89999
 Alpha virt. eigenvalues --    5.90922   5.91197   5.92367   5.94311   5.94918
 Alpha virt. eigenvalues --    5.95594   5.96971   5.98551   5.99757   6.01722
 Alpha virt. eigenvalues --    6.05843   6.06045   6.06480   6.08820   6.11192
 Alpha virt. eigenvalues --    6.12619   6.14318   6.15528   6.18860   6.21402
 Alpha virt. eigenvalues --    6.21884   6.26215   6.26676   6.32894   6.33946
 Alpha virt. eigenvalues --    6.39747   6.40694   6.45084   6.46014   6.48103
 Alpha virt. eigenvalues --    6.58163   6.60561   6.67680   6.69161   6.76795
 Alpha virt. eigenvalues --    6.80629   6.82399   6.84480   6.91993   6.94433
 Alpha virt. eigenvalues --    7.03979   7.06905   7.07129   7.08737   7.19918
 Alpha virt. eigenvalues --    7.25381   8.97116   9.08875   9.36556  19.61920
 Alpha virt. eigenvalues --   22.18456  22.29857  22.44174  22.45537  22.46412
 Alpha virt. eigenvalues --   22.46825  22.52286  22.53273  22.54697  22.57723
 Alpha virt. eigenvalues --   22.58646  22.63718  22.68757  22.71533  22.72718
 Alpha virt. eigenvalues --   22.75935  22.83429  22.87287  22.90028  22.94993
 Alpha virt. eigenvalues --   22.98209  23.01452  23.02206  23.05996  23.07986
 Alpha virt. eigenvalues --   23.17480  23.20312  23.22596  23.32486  23.40605
 Alpha virt. eigenvalues --   23.43722  23.45877  23.51555  23.51687  23.54271
 Alpha virt. eigenvalues --   23.60182  23.67077  23.67919  32.40073  32.69820
 Alpha virt. eigenvalues --   32.85458  32.94111  33.04068  33.23743  43.85293
 Alpha virt. eigenvalues --   43.86517  43.90946  44.05555
  Beta  occ. eigenvalues -- -256.42396 -89.12826 -30.20151 -26.03058 -26.02678
  Beta  occ. eigenvalues --  -26.02099 -19.33766 -19.33458 -19.25668 -19.24328
  Beta  occ. eigenvalues --  -14.53003 -14.49980 -14.49072 -14.48008 -14.47718
  Beta  occ. eigenvalues --  -14.47348 -10.43061 -10.42183 -10.36587 -10.36477
  Beta  occ. eigenvalues --  -10.35785 -10.35655 -10.35585 -10.35149 -10.35131
  Beta  occ. eigenvalues --  -10.34996 -10.34894 -10.34594 -10.33577 -10.33037
  Beta  occ. eigenvalues --  -10.33011 -10.32914 -10.32599 -10.32575 -10.32418
  Beta  occ. eigenvalues --  -10.32326 -10.32298 -10.32227 -10.32226 -10.32163
  Beta  occ. eigenvalues --  -10.32039 -10.31924 -10.31905 -10.31500 -10.31176
  Beta  occ. eigenvalues --  -10.31072 -10.30896 -10.30889 -10.30753 -10.30494
  Beta  occ. eigenvalues --  -10.30276 -10.30104 -10.29966 -10.29543  -8.11181
  Beta  occ. eigenvalues --   -6.04839  -6.04503  -6.03989  -3.55285  -2.31735
  Beta  occ. eigenvalues --   -2.31444  -2.29720  -1.24527  -1.23242  -1.14549
  Beta  occ. eigenvalues --   -1.10954  -1.09586  -1.08654  -1.08349  -1.07442
  Beta  occ. eigenvalues --   -1.06317  -0.99348  -0.94759  -0.93709  -0.93144
  Beta  occ. eigenvalues --   -0.92403  -0.92241  -0.91516  -0.90809  -0.89261
  Beta  occ. eigenvalues --   -0.88844  -0.87913  -0.87477  -0.87168  -0.86546
  Beta  occ. eigenvalues --   -0.85941  -0.83670  -0.81897  -0.81604  -0.81408
  Beta  occ. eigenvalues --   -0.80558  -0.78428  -0.78126  -0.77716  -0.75645
  Beta  occ. eigenvalues --   -0.75068  -0.74601  -0.73000  -0.72580  -0.70654
  Beta  occ. eigenvalues --   -0.70473  -0.70055  -0.69135  -0.68156  -0.65760
  Beta  occ. eigenvalues --   -0.65200  -0.64986  -0.64699  -0.63839  -0.62702
  Beta  occ. eigenvalues --   -0.61870  -0.61524  -0.61137  -0.60867  -0.60224
  Beta  occ. eigenvalues --   -0.59251  -0.58725  -0.58051  -0.57813  -0.57249
  Beta  occ. eigenvalues --   -0.56938  -0.56396  -0.56280  -0.55955  -0.55664
  Beta  occ. eigenvalues --   -0.55505  -0.54759  -0.54496  -0.54457  -0.54274
  Beta  occ. eigenvalues --   -0.53936  -0.53713  -0.53511  -0.53217  -0.53012
  Beta  occ. eigenvalues --   -0.52734  -0.52588  -0.52260  -0.52096  -0.51841
  Beta  occ. eigenvalues --   -0.51561  -0.51298  -0.50974  -0.50850  -0.50591
  Beta  occ. eigenvalues --   -0.50401  -0.50327  -0.50247  -0.50011  -0.49804
  Beta  occ. eigenvalues --   -0.49130  -0.48986  -0.48811  -0.48469  -0.48262
  Beta  occ. eigenvalues --   -0.47961  -0.47568  -0.47427  -0.46885  -0.46726
  Beta  occ. eigenvalues --   -0.46083  -0.45734  -0.45180  -0.44871  -0.44363
  Beta  occ. eigenvalues --   -0.44010  -0.43255  -0.42940  -0.42757  -0.41986
  Beta  occ. eigenvalues --   -0.41877  -0.41096  -0.41028  -0.40781  -0.39951
  Beta  occ. eigenvalues --   -0.39140  -0.38443  -0.37985  -0.37502  -0.36052
  Beta  occ. eigenvalues --   -0.36026  -0.35125  -0.34829  -0.33796  -0.32682
  Beta  occ. eigenvalues --   -0.32488  -0.31587  -0.30839  -0.29788  -0.29336
  Beta  occ. eigenvalues --   -0.28563
  Beta virt. eigenvalues --   -0.23689  -0.16524  -0.16038  -0.13821  -0.11987
  Beta virt. eigenvalues --   -0.10787  -0.08990  -0.08340  -0.08102  -0.06521
  Beta virt. eigenvalues --   -0.06190  -0.05592  -0.05447  -0.04651  -0.03955
  Beta virt. eigenvalues --   -0.03867  -0.03666  -0.03338  -0.03138  -0.02780
  Beta virt. eigenvalues --   -0.02302  -0.02070  -0.01815  -0.01554  -0.01256
  Beta virt. eigenvalues --   -0.01044  -0.00803  -0.00457  -0.00218   0.00366
  Beta virt. eigenvalues --    0.00696   0.00744   0.01188   0.01245   0.01627
  Beta virt. eigenvalues --    0.01834   0.02060   0.02505   0.02713   0.03228
  Beta virt. eigenvalues --    0.03394   0.03472   0.03690   0.03836   0.03929
  Beta virt. eigenvalues --    0.04301   0.04839   0.04995   0.05085   0.05350
  Beta virt. eigenvalues --    0.05495   0.05769   0.05946   0.06158   0.06349
  Beta virt. eigenvalues --    0.06604   0.06736   0.06898   0.06990   0.07190
  Beta virt. eigenvalues --    0.07517   0.07694   0.07891   0.08100   0.08386
  Beta virt. eigenvalues --    0.08584   0.08744   0.09104   0.09189   0.09448
  Beta virt. eigenvalues --    0.09617   0.09918   0.10313   0.10468   0.10591
  Beta virt. eigenvalues --    0.10870   0.11206   0.11384   0.11588   0.11849
  Beta virt. eigenvalues --    0.12037   0.12174   0.12205   0.12446   0.12836
  Beta virt. eigenvalues --    0.13364   0.13524   0.13755   0.13939   0.14228
  Beta virt. eigenvalues --    0.14408   0.14478   0.14556   0.14760   0.15116
  Beta virt. eigenvalues --    0.15293   0.15461   0.15795   0.16188   0.16254
  Beta virt. eigenvalues --    0.16471   0.16619   0.17117   0.17225   0.17351
  Beta virt. eigenvalues --    0.17618   0.17873   0.18104   0.18379   0.18549
  Beta virt. eigenvalues --    0.18597   0.18900   0.19415   0.19535   0.19868
  Beta virt. eigenvalues --    0.20033   0.20182   0.20221   0.20730   0.20778
  Beta virt. eigenvalues --    0.21200   0.21594   0.21811   0.22126   0.22252
  Beta virt. eigenvalues --    0.22601   0.22788   0.22882   0.23106   0.23237
  Beta virt. eigenvalues --    0.23493   0.23810   0.23929   0.24008   0.24165
  Beta virt. eigenvalues --    0.24590   0.24655   0.24951   0.25183   0.25715
  Beta virt. eigenvalues --    0.26042   0.26113   0.26436   0.26979   0.27113
  Beta virt. eigenvalues --    0.27299   0.27381   0.27641   0.27724   0.28316
  Beta virt. eigenvalues --    0.28485   0.28916   0.28964   0.29148   0.29404
  Beta virt. eigenvalues --    0.29414   0.29751   0.29848   0.30125   0.30337
  Beta virt. eigenvalues --    0.30662   0.30890   0.31071   0.31296   0.31556
  Beta virt. eigenvalues --    0.31863   0.31886   0.32021   0.32422   0.32584
  Beta virt. eigenvalues --    0.32762   0.32906   0.33036   0.33271   0.33312
  Beta virt. eigenvalues --    0.33394   0.33622   0.33744   0.34054   0.34364
  Beta virt. eigenvalues --    0.34473   0.34738   0.34892   0.35080   0.35085
  Beta virt. eigenvalues --    0.35446   0.35780   0.35894   0.36128   0.36387
  Beta virt. eigenvalues --    0.36623   0.36775   0.37031   0.37135   0.37254
  Beta virt. eigenvalues --    0.37450   0.37732   0.37759   0.37959   0.38197
  Beta virt. eigenvalues --    0.38398   0.38489   0.38577   0.38831   0.38936
  Beta virt. eigenvalues --    0.39318   0.39620   0.39753   0.39847   0.40038
  Beta virt. eigenvalues --    0.40111   0.40361   0.40567   0.40698   0.40896
  Beta virt. eigenvalues --    0.41077   0.41157   0.41325   0.41458   0.41684
  Beta virt. eigenvalues --    0.42162   0.42402   0.42469   0.42692   0.42778
  Beta virt. eigenvalues --    0.43003   0.43144   0.43422   0.43597   0.43824
  Beta virt. eigenvalues --    0.43944   0.44191   0.44345   0.44522   0.44686
  Beta virt. eigenvalues --    0.44789   0.45106   0.45275   0.45421   0.45797
  Beta virt. eigenvalues --    0.46026   0.46169   0.46297   0.46633   0.46775
  Beta virt. eigenvalues --    0.47056   0.47476   0.47581   0.47861   0.47993
  Beta virt. eigenvalues --    0.48174   0.48427   0.48571   0.48669   0.49029
  Beta virt. eigenvalues --    0.49239   0.49733   0.49878   0.50008   0.50281
  Beta virt. eigenvalues --    0.50663   0.50955   0.51213   0.51261   0.51474
  Beta virt. eigenvalues --    0.52046   0.52177   0.52330   0.52515   0.52779
  Beta virt. eigenvalues --    0.53023   0.53286   0.53359   0.53643   0.53928
  Beta virt. eigenvalues --    0.53996   0.54563   0.54767   0.54975   0.55437
  Beta virt. eigenvalues --    0.55589   0.55978   0.56747   0.56808   0.56973
  Beta virt. eigenvalues --    0.57285   0.57406   0.57613   0.57787   0.58298
  Beta virt. eigenvalues --    0.58336   0.58779   0.58929   0.59260   0.59561
  Beta virt. eigenvalues --    0.59805   0.59976   0.60387   0.60541   0.60663
  Beta virt. eigenvalues --    0.61181   0.61451   0.61663   0.62041   0.62318
  Beta virt. eigenvalues --    0.62686   0.63023   0.63066   0.63410   0.63730
  Beta virt. eigenvalues --    0.63808   0.64210   0.64684   0.64803   0.65206
  Beta virt. eigenvalues --    0.65391   0.65417   0.66192   0.66208   0.66396
  Beta virt. eigenvalues --    0.66724   0.67251   0.67440   0.67639   0.68177
  Beta virt. eigenvalues --    0.68699   0.68967   0.69446   0.69665   0.69906
  Beta virt. eigenvalues --    0.70286   0.70368   0.70608   0.70979   0.71241
  Beta virt. eigenvalues --    0.71737   0.71871   0.72472   0.72562   0.73180
  Beta virt. eigenvalues --    0.73548   0.73830   0.73891   0.74002   0.74535
  Beta virt. eigenvalues --    0.74852   0.75042   0.75531   0.76058   0.76374
  Beta virt. eigenvalues --    0.76443   0.76685   0.77024   0.77357   0.77698
  Beta virt. eigenvalues --    0.78042   0.78367   0.78578   0.78675   0.78871
  Beta virt. eigenvalues --    0.79370   0.79772   0.79849   0.80116   0.80558
  Beta virt. eigenvalues --    0.80832   0.81126   0.81540   0.81862   0.82240
  Beta virt. eigenvalues --    0.82698   0.83051   0.83508   0.83748   0.83920
  Beta virt. eigenvalues --    0.84095   0.84318   0.84689   0.84967   0.85184
  Beta virt. eigenvalues --    0.85411   0.85743   0.85814   0.86484   0.86776
  Beta virt. eigenvalues --    0.87088   0.87134   0.87207   0.87709   0.88007
  Beta virt. eigenvalues --    0.88043   0.88514   0.88892   0.89171   0.89512
  Beta virt. eigenvalues --    0.89577   0.89750   0.90178   0.90191   0.90746
  Beta virt. eigenvalues --    0.90892   0.91306   0.91337   0.91790   0.91907
  Beta virt. eigenvalues --    0.92230   0.92490   0.92795   0.93519   0.93762
  Beta virt. eigenvalues --    0.94114   0.94383   0.94752   0.94862   0.95204
  Beta virt. eigenvalues --    0.95350   0.95740   0.95835   0.96122   0.96317
  Beta virt. eigenvalues --    0.96536   0.97100   0.97339   0.97715   0.98156
  Beta virt. eigenvalues --    0.98229   0.98797   0.99003   0.99324   0.99517
  Beta virt. eigenvalues --    1.00328   1.00701   1.00925   1.01331   1.01655
  Beta virt. eigenvalues --    1.01890   1.02196   1.02360   1.02906   1.03042
  Beta virt. eigenvalues --    1.03449   1.03569   1.04269   1.04286   1.04973
  Beta virt. eigenvalues --    1.05118   1.05500   1.05808   1.06223   1.06701
  Beta virt. eigenvalues --    1.07046   1.07604   1.07982   1.08274   1.08421
  Beta virt. eigenvalues --    1.08856   1.09290   1.09928   1.10256   1.10513
  Beta virt. eigenvalues --    1.11023   1.11224   1.11276   1.11832   1.12513
  Beta virt. eigenvalues --    1.12632   1.13163   1.13538   1.13703   1.14130
  Beta virt. eigenvalues --    1.14395   1.14495   1.14969   1.15437   1.15733
  Beta virt. eigenvalues --    1.16223   1.16640   1.16698   1.16954   1.17257
  Beta virt. eigenvalues --    1.17363   1.17743   1.18239   1.19021   1.19306
  Beta virt. eigenvalues --    1.19733   1.20229   1.20410   1.20677   1.21332
  Beta virt. eigenvalues --    1.21447   1.21678   1.22388   1.22802   1.23267
  Beta virt. eigenvalues --    1.23438   1.23574   1.24031   1.24409   1.25273
  Beta virt. eigenvalues --    1.25414   1.25638   1.25871   1.26195   1.27095
  Beta virt. eigenvalues --    1.27393   1.27538   1.27832   1.28178   1.28381
  Beta virt. eigenvalues --    1.28534   1.29167   1.29409   1.29930   1.30459
  Beta virt. eigenvalues --    1.30969   1.31373   1.31596   1.31992   1.32421
  Beta virt. eigenvalues --    1.32817   1.33124   1.33467   1.33702   1.34161
  Beta virt. eigenvalues --    1.34637   1.34891   1.35330   1.35746   1.35866
  Beta virt. eigenvalues --    1.36293   1.36773   1.37371   1.37818   1.37965
  Beta virt. eigenvalues --    1.38067   1.38600   1.39052   1.39229   1.39648
  Beta virt. eigenvalues --    1.39933   1.39970   1.40471   1.41007   1.41127
  Beta virt. eigenvalues --    1.41566   1.42079   1.42397   1.42491   1.43140
  Beta virt. eigenvalues --    1.43554   1.43770   1.43933   1.44224   1.44907
  Beta virt. eigenvalues --    1.45073   1.45303   1.45452   1.45612   1.45875
  Beta virt. eigenvalues --    1.45988   1.46371   1.46621   1.46811   1.46991
  Beta virt. eigenvalues --    1.47337   1.47740   1.48125   1.48378   1.48624
  Beta virt. eigenvalues --    1.48781   1.49022   1.49392   1.49617   1.49906
  Beta virt. eigenvalues --    1.50145   1.50650   1.51089   1.51380   1.51700
  Beta virt. eigenvalues --    1.51766   1.52223   1.52652   1.52909   1.53021
  Beta virt. eigenvalues --    1.53489   1.53755   1.54067   1.54296   1.54464
  Beta virt. eigenvalues --    1.54647   1.54924   1.55193   1.55651   1.55898
  Beta virt. eigenvalues --    1.56124   1.56416   1.56647   1.56998   1.57194
  Beta virt. eigenvalues --    1.57451   1.57520   1.57781   1.58036   1.58141
  Beta virt. eigenvalues --    1.58509   1.58775   1.59177   1.59290   1.59426
  Beta virt. eigenvalues --    1.59874   1.60388   1.60491   1.60967   1.61482
  Beta virt. eigenvalues --    1.61696   1.61983   1.62387   1.62607   1.63002
  Beta virt. eigenvalues --    1.63142   1.63565   1.63812   1.64227   1.64596
  Beta virt. eigenvalues --    1.64784   1.65024   1.65543   1.65975   1.66049
  Beta virt. eigenvalues --    1.66217   1.66555   1.67036   1.67260   1.67605
  Beta virt. eigenvalues --    1.67928   1.68196   1.68741   1.69285   1.69326
  Beta virt. eigenvalues --    1.69913   1.70082   1.70686   1.71222   1.71883
  Beta virt. eigenvalues --    1.72092   1.72468   1.72643   1.73001   1.73147
  Beta virt. eigenvalues --    1.73578   1.73778   1.74402   1.74542   1.75078
  Beta virt. eigenvalues --    1.75282   1.75467   1.75898   1.75979   1.76244
  Beta virt. eigenvalues --    1.76660   1.77051   1.77350   1.77952   1.78129
  Beta virt. eigenvalues --    1.78601   1.79629   1.79768   1.79951   1.80683
  Beta virt. eigenvalues --    1.81197   1.81255   1.81822   1.82090   1.82654
  Beta virt. eigenvalues --    1.82994   1.83698   1.83840   1.84197   1.84705
  Beta virt. eigenvalues --    1.85106   1.85369   1.85777   1.85927   1.86536
  Beta virt. eigenvalues --    1.87232   1.87320   1.87565   1.88076   1.88328
[...]
  1559. RY*(   1) H  63                  0.00031     0.93581   
  1560. RY*(   2) H  63                  0.00007     1.75081   
  1561. RY*(   3) H  63                  0.00002     2.07739   
  1562. RY*(   4) H  63                  0.00003     2.07011   
  1563. RY*(   5) H  63                  0.00000     2.70068   
  1564. RY*(   1) H  64                  0.00027     1.06267   
  1565. RY*(   2) H  64                  0.00010     1.74158   
  1566. RY*(   3) H  64                  0.00003     1.88163   
  1567. RY*(   4) H  64                  0.00002     2.00725   
  1568. RY*(   5) H  64                  0.00000     2.90288   
  1569. RY*(   1) H  65                  0.00035     1.08649   
  1570. RY*(   2) H  65                  0.00009     1.52214   
  1571. RY*(   3) H  65                  0.00003     2.05195   
  1572. RY*(   4) H  65                  0.00003     2.02220   
  1573. RY*(   5) H  65                  0.00001     2.83651   
  1574. RY*(   1) H  66                  0.00035     1.60233   
  1575. RY*(   2) H  66                  0.00008     2.51340   
  1576. RY*(   3) H  66                  0.00005     1.47245   
  1577. RY*(   4) H  66                  0.00005     2.38744   
  1578. RY*(   5) H  66                  0.00000     2.95809   
  1579. RY*(   1) H  67                  0.00027     1.75772   
  1580. RY*(   2) H  67                  0.00009     2.54833   
  1581. RY*(   3) H  67                  0.00005     2.35876   
  1582. RY*(   4) H  67                  0.00002     1.41232   
  1583. RY*(   5) H  67                  0.00000     2.60665   
  1584. RY*(   1) H  68                  0.00027     1.44970   
  1585. RY*(   2) H  68                  0.00007     2.31132   
  1586. RY*(   3) H  68                  0.00005     1.46048   
  1587. RY*(   4) H  68                  0.00002     2.77418   
  1588. RY*(   5) H  68                  0.00001     2.40438   
  1589. RY*(   1) H  69                  0.00037     1.15686   
  1590. RY*(   2) H  69                  0.00007     2.32161   
  1591. RY*(   3) H  69                  0.00005     1.49120   
  1592. RY*(   4) H  69                  0.00002     2.40203   
  1593. RY*(   5) H  69                  0.00001     2.95348   
  1594. RY*(   1) H  70                  0.00074     0.76345   
  1595. RY*(   2) H  70                  0.00030     2.05115   
  1596. RY*(   3) H  70                  0.00023     1.76317   
  1597. RY*(   4) H  70                  0.00011     2.08983   
  1598. RY*(   5) H  70                  0.00000     3.18492   
  1599. RY*(   1) H  71                  0.00096     0.69727   
  1600. RY*(   2) H  71                  0.00016     2.12156   
  1601. RY*(   3) H  71                  0.00012     2.14810   
  1602. RY*(   4) H  71                  0.00008     2.88017   
  1603. RY*(   5) H  71                  0.00001     3.19507   
  1604. RY*(   1) H  72                  0.00044     1.16436   
  1605. RY*(   2) H  72                  0.00034     1.66948   
  1606. RY*(   3) H  72                  0.00019     2.04785   
  1607. RY*(   4) H  72                  0.00012     1.94909   
  1608. RY*(   5) H  72                  0.00000     3.16679   
  1609. RY*(   1) H  73                  0.00041     0.87509   
  1610. RY*(   2) H  73                  0.00007     1.71278   
  1611. RY*(   3) H  73                  0.00006     2.33697   
  1612. RY*(   4) H  73                  0.00003     2.40103   
  1613. RY*(   5) H  73                  0.00001     2.74412   
  1614. RY*(   1) H  74                  0.00037     1.10461   
  1615. RY*(   2) H  74                  0.00007     2.00824   
  1616. RY*(   3) H  74                  0.00005     1.93726   
  1617. RY*(   4) H  74                  0.00005     2.49728   
  1618. RY*(   5) H  74                  0.00001     2.92798   
  1619. RY*(   1) H  75                  0.00036     1.49934   
  1620. RY*(   2) H  75                  0.00009     2.54375   
  1621. RY*(   3) H  75                  0.00006     1.48619   
  1622. RY*(   4) H  75                  0.00005     2.25565   
  1623. RY*(   5) H  75                  0.00000     2.82610   
  1624. RY*(   1) H  76                  0.00032     1.65261   
  1625. RY*(   2) H  76                  0.00011     2.47959   
  1626. RY*(   3) H  76                  0.00006     2.26286   
  1627. RY*(   4) H  76                  0.00003     1.34684   
  1628. RY*(   5) H  76                  0.00001     3.04660   
  1629. RY*(   1) H  77                  0.00037     0.85210   
  1630. RY*(   2) H  77                  0.00007     1.64517   
  1631. RY*(   3) H  77                  0.00007     2.11500   
  1632. RY*(   4) H  77                  0.00003     2.09862   
  1633. RY*(   5) H  77                  0.00000     2.92042   
  1634. RY*(   1) H  78                  0.00023     1.14545   
  1635. RY*(   2) H  78                  0.00008     1.79288   
  1636. RY*(   3) H  78                  0.00003     2.06980   
  1637. RY*(   4) H  78                  0.00001     1.97865   
  1638. RY*(   5) H  78                  0.00000     2.59682   
  1639. RY*(   1) H  79                  0.00041     0.97667   
  1640. RY*(   2) H  79                  0.00007     1.58561   
  1641. RY*(   3) H  79                  0.00003     2.05617   
  1642. RY*(   4) H  79                  0.00003     1.96608   
  1643. RY*(   5) H  79                  0.00000     2.89608   
  1644. RY*(   1) H  80                  0.00081     0.53594   
  1645. RY*(   2) H  80                  0.00016     2.05358   
  1646. RY*(   3) H  80                  0.00013     2.15317   
  1647. RY*(   4) H  80                  0.00008     2.81211   
  1648. RY*(   5) H  80                  0.00000     3.07625   
  1649. RY*(   1) H  81                  0.00136     0.60261   
  1650. RY*(   2) H  81                  0.00015     2.10597   
  1651. RY*(   3) H  81                  0.00012     2.19794   
  1652. RY*(   4) H  81                  0.00007     2.89419   
  1653. RY*(   5) H  81                  0.00001     3.14210   
  1654. RY*(   1) H  82                  0.00020     1.43592   
  1655. RY*(   2) H  82                  0.00007     1.70925   
  1656. RY*(   3) H  82                  0.00004     2.03146   
  1657. RY*(   4) H  82                  0.00003     2.07531   
  1658. RY*(   5) H  82                  0.00000     2.96060   
  1659. RY*(   1) H  83                  0.00028     1.43657   
  1660. RY*(   2) H  83                  0.00006     1.15219   
  1661. RY*(   3) H  83                  0.00004     2.37624   
  1662. RY*(   4) H  83                  0.00004     2.20905   
  1663. RY*(   5) H  83                  0.00000     3.01650   
  1664. RY*(   1) H  84                  0.00039     0.96822   
  1665. RY*(   2) H  84                  0.00009     1.48405   
  1666. RY*(   3) H  84                  0.00006     2.17848   
  1667. RY*(   4) H  84                  0.00004     2.30369   
  1668. RY*(   5) H  84                  0.00001     2.98006   
  1669. RY*(   1) H  85                  0.00033     0.97555   
  1670. RY*(   2) H  85                  0.00010     1.66283   
  1671. RY*(   3) H  85                  0.00003     2.05737   
  1672. RY*(   4) H  85                  0.00002     2.01903   
  1673. RY*(   5) H  85                  0.00001     2.88138   
  1674. RY*(   1) H  86                  0.00056     0.95616   
  1675. RY*(   2) H  86                  0.00008     1.90469   
  1676. RY*(   3) H  86                  0.00005     1.74279   
  1677. RY*(   4) H  86                  0.00003     2.03192   
  1678. RY*(   5) H  86                  0.00001     2.96326   
  1679. RY*(   1) H  87                  0.00028     0.98312   
  1680. RY*(   2) H  87                  0.00011     1.68314   
  1681. RY*(   3) H  87                  0.00003     2.08546   
  1682. RY*(   4) H  87                  0.00001     2.08385   
  1683. RY*(   5) H  87                  0.00001     2.79491   
  1684. RY*(   1) H  88                  0.00054     1.25117   
  1685. RY*(   2) H  88                  0.00014     1.58467   
  1686. RY*(   3) H  88                  0.00006     1.85083   
  1687. RY*(   4) H  88                  0.00003     2.22403   
  1688. RY*(   5) H  88                  0.00001     2.95043   
  1689. RY*(   1) H  89                  0.00044     1.27040   
  1690. RY*(   2) H  89                  0.00014     1.37713   
  1691. RY*(   3) H  89                  0.00003     2.35320   
  1692. RY*(   4) H  89                  0.00003     1.90818   
  1693. RY*(   5) H  89                  0.00000     2.86221   
  1694. RY*(   1) H  90                  0.00058     1.54204   
  1695. RY*(   2) H  90                  0.00007     1.59088   
  1696. RY*(   3) H  90                  0.00005     2.20455   
  1697. RY*(   4) H  90                  0.00003     2.18298   
  1698. RY*(   5) H  90                  0.00000     2.95211   
  1713. BD*(   1)Fe   7 - N  12          0.04561     0.35604   
  1714. BD*(   1)Fe   7 - N  23          0.03595     0.29545   
  1715. BD*(   1)Fe   7 - N  31          0.04572     0.36359   
  1716. BD*(   1)Fe   7 - N  39          0.03571     0.30677   
  1717. BD*(   1)Fe   7 - S  50          0.03742     0.27454   
  1718. BD*(   1) C   8 - C  13          0.01091     0.47013   
  1719. BD*(   1) C   8 - C  43          0.01104     0.50672   
  1720. BD*(   1) C   8 - H  71          0.00844     0.35204   
  1721. BD*(   1) C   9 - C  16          0.01060     0.45053   
  1722. BD*(   2) C   9 - C  16          0.15423    -0.05998  1754(v),1736(v),1732(v)
                                                    405(g),591(g),1712(r)
  1723. BD*(   1) C   9 - C  24          0.01031     0.45239   
  1724. BD*(   1) C   9 - H  80          0.00635     0.34889   
  1725. BD*(   1) C  10 - C  27          0.01247     0.50046   
  1726. BD*(   1) C  10 - C  32          0.01179     0.48083   
  1727. BD*(   1) C  10 - H  81          0.00843     0.35080   
  1728. BD*(   1) C  11 - C  35          0.01256     0.48294   
  1729. BD*(   1) C  11 - C  40          0.01020     0.49699   
  1730. BD*(   1) C  11 - H  62          0.00731     0.34946   
  1731. BD*(   1) N  12 - C  13          0.01979     0.30537   
  1732. BD*(   2) N  12 - C  13          0.25975    -0.10283  1736(v),1722(v),511(g)
                                                    379(v),512(g),483(g),1709(r)
                                                    175(r)
  1733. BD*(   1) N  12 - C  16          0.01663     0.34995   
  1734. BD*(   1) C  13 - C  14          0.01651     0.39096   
  1735. BD*(   1) C  14 - C  15          0.01021     0.50878   
  1736. BD*(   2) C  14 - C  15          0.06645    -0.02394   
  1737. BD*(   1) C  14 - C  18          0.01168     0.22929   
  1738. BD*(   1) C  15 - C  16          0.01652     0.38093   
  1739. BD*(   1) C  15 - C  17          0.01011     0.27326   
  1740. BD*(   1) C  17 - H  77          0.00333     0.32287   
  1741. BD*(   1) C  17 - H  78          0.00229     0.32484   
  1742. BD*(   1) C  17 - H  79          0.00395     0.31937   
  1743. BD*(   1) C  18 - C  19          0.00524     0.23108   
  1744. BD*(   1) C  18 - H  75          0.00599     0.32145   
  1745. BD*(   1) C  18 - H  76          0.00551     0.32232   
  1746. BD*(   1) C  19 - C  20          0.03716     0.26076   
  1747. BD*(   1) C  19 - H  73          0.00719     0.30535   
  1748. BD*(   1) C  19 - H  74          0.00555     0.31644   
  1749. BD*(   1) C  20 - O  21          0.03584     0.40015   
  1750. BD*(   1) C  20 - O  22          0.02702     0.45370   
  1751. BD*(   2) C  20 - O  22          0.09033    -0.03153   
  1752. BD*(   1) O  21 - H  72          0.00735     0.29933   
  1753. BD*(   1) N  23 - C  24          0.01301     0.42995   
  1754. BD*(   2) N  23 - C  24          0.22302    -0.07880  1722(v),1758(v),188(v)
                                                    797(g),769(g),798(g),405(v)
                                                    1709(r)
  1755. BD*(   1) N  23 - C  27          0.01190     0.40914   
  1756. BD*(   1) C  24 - C  25          0.01775     0.36584   
  1757. BD*(   1) C  25 - C  26          0.00965     0.55325   
  1758. BD*(   2) C  25 - C  26          0.08487    -0.01693   
  1759. BD*(   1) C  25 - C  28          0.01090     0.28398   
  1760. BD*(   1) C  26 - C  27          0.01597     0.38195   
  1761. BD*(   1) C  26 - C  29          0.01568     0.26519   
  1762. BD*(   1) C  28 - H  85          0.00331     0.32431   
  1763. BD*(   1) C  28 - H  86          0.00391     0.34272   
  1764. BD*(   1) C  28 - H  87          0.00354     0.32508   
  1765. BD*(   1) C  29 - C  30          0.00227     0.55026   
  1766. BD*(   2) C  29 - C  30          0.03083    -0.04240   
  1767. BD*(   1) C  29 - H  90          0.00708     0.34227   
  1768. BD*(   1) C  30 - H  88          0.00367     0.33968   
  1769. BD*(   1) C  30 - H  89          0.00346     0.34413   
  1770. BD*(   1) N  31 - C  32          0.02271     0.29192   
  1771. BD*(   2) N  31 - C  32          0.27175    -0.10754  1775(v),189(v),1005(g)
                                                    1770(g),180(v),1709(r)
  1772. BD*(   1) N  31 - C  35          0.01828     0.34348   
  1773. BD*(   1) C  32 - C  33          0.01635     0.39499   
  1774. BD*(   1) C  33 - C  34          0.01087     0.53630   
  1775. BD*(   2) C  33 - C  34          0.08793    -0.02359   
  1776. BD*(   1) C  33 - C  36          0.00869     0.26438   
  1777. BD*(   1) C  34 - C  35          0.01737     0.38700   
  1778. BD*(   1) C  34 - C  37          0.01703     0.27196   
  1779. BD*(   1) C  36 - H  82          0.00291     0.33069   
  1780. BD*(   1) C  36 - H  83          0.00253     0.33962   
  1781. BD*(   1) C  36 - H  84          0.00427     0.32910   
  1782. BD*(   1) C  37 - C  38          0.00218     0.49513   
  1783. BD*(   2) C  37 - C  38          0.02124    -0.04251   
  1784. BD*(   1) C  37 - H  61          0.00807     0.35052   
  1785. BD*(   1) C  38 - H  59          0.00480     0.35306   
  1786. BD*(   1) C  38 - H  60          0.00348     0.35571   
  1787. BD*(   1) N  39 - C  40          0.01392     0.39517   
  1788. BD*(   2) N  39 - C  40          0.23481    -0.08143  1792(v),190(v),457(v)
                                                    1213(g),1185(g),1214(g)
                                                    1709(r)
  1789. BD*(   1) N  39 - C  43          0.01365     0.38382   
  1790. BD*(   1) C  40 - C  41          0.01780     0.36447   
  1791. BD*(   1) C  41 - C  42          0.01020     0.51809   
  1792. BD*(   2) C  41 - C  42          0.06319    -0.01958   
  1793. BD*(   1) C  41 - C  44          0.00903     0.27872   
  1794. BD*(   1) C  42 - C  43          0.01777     0.37837   
  1795. BD*(   1) C  42 - C  45          0.01093     0.27803   
  1796. BD*(   1) C  44 - H  63          0.00261     0.33293   
  1797. BD*(   1) C  44 - H  64          0.00305     0.32282   
  1798. BD*(   1) C  44 - H  65          0.00396     0.32495   
  1799. BD*(   1) C  45 - C  46          0.00630     0.23618   
  1800. BD*(   1) C  45 - H  66          0.00570     0.33180   
  1801. BD*(   1) C  45 - H  67          0.00569     0.33187   
  1802. BD*(   1) C  46 - C  47          0.03249     0.27390   
  1803. BD*(   1) C  46 - H  68          0.00479     0.32622   
  1804. BD*(   1) C  46 - H  69          0.00645     0.32058   
  1805. BD*(   1) C  47 - O  48          0.01583     0.47098   
  1806. BD*(   2) C  47 - O  48          0.11774    -0.06957  1799(v),1395(g),1404(g)
  1807. BD*(   1) C  47 - O  49          0.03628     0.40290   
  1808. BD*(   1) O  49 - H  70          0.00658     0.32203   
  1809. BD*(   1) S  50 - H  57          0.00707     0.12187   
  1810. BD*(   1) S  50 - H  58          0.00806     0.12291   
       -------------------------------
              Total Lewis  164.79456  ( 97.4075%)
        Valence non-Lewis    4.06602  (  2.4034%)
        Rydberg non-Lewis    0.32000  (  0.1891%)
       -------------------------------
            Total unit  2  169.18059  (100.0000%)
           Charge unit  2    0.81941
 1\1\GINC-NODE657\SP\UPBE1PBE\def2TZVP\C38H40Fe1N6O4S1(1+,2)\ZHARTOVSKA
 \08-Oct-2022\0\\# PBE1PBE/def2TZVP empiricaldispersion=GD3BJ scf=maxcy
 cle=999 geom=check pop=nbo\\1moh_III_D\\1,2\C,0,11.542,-1.461,-4.191\C
 ,0,12.241,-2.153,-3.057\N,0,13.612,-2.335,-2.989\C,0,11.717,-2.757,-1.
 952\C,0,13.898,-3.038,-1.892\N,0,12.765,-3.294,-1.259\Fe,0,12.592,-4.3
 55,0.602\C,0,14.027,-7.044,-0.7\C,0,15.574,-3.206,1.845\C,0,11.15,-1.5
 76,1.763\C,0,9.499,-5.549,-0.294\N,0,14.273,-4.799,0.527\C,0,14.706,-5
 .95,-0.194\C,0,16.141001,-6.097,-0.291\C,0,16.608999,-5.056,0.433\C,0,
 15.493,-4.283,0.955\C,0,18.101,-4.838,0.734\C,0,16.989,-7.312,-0.817\C
 ,0,17.655001,-6.727,-2.085\C,0,16.681999,-6.717,-3.243\O,0,16.389,-7.7
 53,-3.898\O,0,16.049999,-5.694,-3.524\N,0,13.184,-2.658,1.6\C,0,14.413
 ,-2.479,2.117\C,0,14.414,-1.233,2.895\C,0,13.248,-0.613,2.75\C,0,12.44
 6,-1.681,2.188\C,0,15.783,-0.909,3.502\C,0,12.715,0.739,3.303\C,0,13.3
 75,1.372,4.261\N,0,10.984,-3.881,0.664\C,0,10.499,-2.667,1.232\C,0,9.0
 85,-2.4,1.174\C,0,8.582,-3.539,0.693\C,0,9.718,-4.397,0.428\C,0,8.182,
 -1.369,1.886\C,0,7.087,-3.88,0.424\C,0,6.02,-3.141,0.009\N,0,11.93,-5.
 922,-0.359\C,0,10.623,-6.27,-0.59\C,0,10.545,-7.599,-1.219\C,0,11.817,
 -7.983,-1.478\C,0,12.676,-6.973,-0.862\C,0,9.144,-8.084,-1.618\C,0,12.
 297,-9.241,-2.219\C,0,12.221,-10.359,-1.132\C,0,12.747,-11.726,-1.522\
 O,0,13.962,-11.983,-1.316\O,0,11.958,-12.536,-2.085\S,0,12.452,-5.431,
 2.618\H,0,12.14907565,-1.51524004,-5.0704414\H,0,10.60276344,-1.939058
 66,-4.37591782\H,0,11.37591954,-0.43544947,-3.93494652\H,0,10.6831357,
 -2.80173201,-1.67992712\H,0,14.87474041,-3.34216595,-1.57837402\H,0,14
 .27811025,-1.99531741,-3.65301271\H,0,13.5443171,-5.77150213,3.2559668
 2\H,0,11.27957672,-5.70617115,3.1335623\H,0,6.13295164,-2.44183326,-0.
 79306471\H,0,5.06920775,-3.25988068,0.48519479\H,0,6.84773829,-4.90763
 082,0.6018447\H,0,8.52144228,-5.85740008,-0.60087179\H,0,9.17591,-9.13
 277516,-1.82764833\H,0,8.46116651,-7.90147327,-0.81468038\H,0,8.818538
 25,-7.55575789,-2.48974246\H,0,13.30338268,-9.11571847,-2.56017215\H,0
 ,11.64585025,-9.46705238,-3.03741574\H,0,12.77174724,-10.02557965,-0.2
 7736069\H,0,11.1963207,-10.46995844,-0.84456208\H,0,12.30743368,-13.27
 021183,-2.59532254\H,0,14.55695151,-7.93607265,-0.96126192\H,0,17.0860
 0336,-8.31097556,-4.25077413\H,0,18.50473531,-7.32352683,-2.34385777\H
 ,0,17.97500071,-5.72575986,-1.88495406\H,0,17.7274261,-7.59975934,-0.0
 9809704\H,0,16.35590659,-8.13769242,-1.06664926\H,0,18.65826131,-4.876
 18002,-0.17863471\H,0,18.23592063,-3.8816538,1.19454139\H,0,18.4470909
 7,-5.60446152,1.39555708\H,0,16.50369963,-2.94565229,2.3062783\H,0,10.
 63860079,-0.63959713,1.84374975\H,0,8.68223036,-0.42396136,1.92564277\
 H,0,7.26470104,-1.26459176,1.34511042\H,0,7.9734657,-1.70416495,2.8805
 2396\H,0,16.49401163,-0.75617672,2.71713854\H,0,15.70934897,-0.0210194
 6,4.09442391\H,0,16.1016803,-1.72353848,4.11833589\H,0,14.38297762,1.6
 9064997,4.09564186\H,0,12.90024255,1.56475571,5.20033519\H,0,11.813193
 39,1.15879465,2.90877\\Version=ES64L-G16RevA.03\State=2-A\HF=-3761.135
 1174\S2=0.90508\S2-1=0.\S2A=0.771162\RMSD=2.903e-09\Dipole=0.3497075,0
 .8383396,-0.2990757\Quadrupole=13.2309871,2.298818,-15.529805,-3.75050
 82,-4.6267512,22.693568\PG=C01 [X(C38H40Fe1N6O4S1)]\\@


 ... FOR AFTERWARDS A MAN FINDS PLEASURE IN HIS PAINS,
 WHEN HE HAS SUFFERED LONG AND WANDERED FAR.

                                    -- HOMER
 Job cpu time:       6 days  2 hours 38 minutes 30.1 seconds.
 Elapsed time:       1 days 12 hours 45 minutes 58.4 seconds.
 File lengths (MBytes):  RWF=   3009 Int=      0 D2E=      0 Chk=    252 Scr=      1
 Normal termination of Gaussian 16 at Sat Oct  8 02:44:53 2022.
