 Entering Gaussian System, Link 0=g16
 Input=/net/homes/chemie/zhartovska/work/BioModel/Konrad/1nsi/1nsi05/1nsi05.com
 Output=/net/homes/chemie/zhartovska/work/BioModel/Konrad/1nsi/1nsi05/1nsi05.log
 Initial command:
 /afs/math/software/gaussian/g16.A03/g16/l1.exe "/scratch/zhartovska_gaussian.GKi434i/Gau-12322.inp" -scrdir="/scratch/zhartovska_gaussian.GKi434i/"
 Entering Link 1 = /afs/math/software/gaussian/g16.A03/g16/l1.exe PID=     12323.
  
 Copyright (c) 1988,1990,1992,1993,1995,1998,2003,2009,2016,
            Gaussian, Inc.  All Rights Reserved.
  
 This is part of the Gaussian(R) 16 program.  It is based on
 the Gaussian(R) 09 system (copyright 2009, Gaussian, Inc.),
 the Gaussian(R) 03 system (copyright 2003, Gaussian, Inc.),
 the Gaussian(R) 98 system (copyright 1998, Gaussian, Inc.),
 the Gaussian(R) 94 system (copyright 1995, Gaussian, Inc.),
 the Gaussian 92(TM) system (copyright 1992, Gaussian, Inc.),
 the Gaussian 90(TM) system (copyright 1990, Gaussian, Inc.),
 the Gaussian 88(TM) system (copyright 1988, Gaussian, Inc.),
 the Gaussian 86(TM) system (copyright 1986, Carnegie Mellon
 University), and the Gaussian 82(TM) system (copyright 1983,
 Carnegie Mellon University). Gaussian is a federally registered
 trademark of Gaussian, Inc.
  
 This software contains proprietary and confidential information,
 including trade secrets, belonging to Gaussian, Inc.
  
 This software is provided under written license and may be
 used, copied, transmitted, or stored only in accord with that
 written license.
  
 The following legend is applicable only to US Government
 contracts under FAR:
  
                    RESTRICTED RIGHTS LEGEND
  
 Use, reproduction and disclosure by the US Government is
 subject to restrictions as set forth in subparagraphs (a)
 and (c) of the Commercial Computer Software - Restricted
 Rights clause in FAR 52.227-19.
  
 Gaussian, Inc.
 340 Quinnipiac St., Bldg. 40, Wallingford CT 06492
  
  
 ---------------------------------------------------------------
 Warning -- This program may not be used in any manner that
 competes with the business of Gaussian, Inc. or will provide
 assistance to any competitor of Gaussian, Inc.  The licensee
 of this program is prohibited from giving any competitor of
 Gaussian, Inc. access to this program.  By using this program,
 the user acknowledges that Gaussian, Inc. is engaged in the
 business of creating and licensing software in the field of
 computational chemistry and represents and warrants to the
 licensee that it is not a competitor of Gaussian, Inc. and that
 it will not use this program in any manner prohibited above.
 ---------------------------------------------------------------
  

 Cite this work as:
 Gaussian 16, Revision A.03,
 M. J. Frisch, G. W. Trucks, H. B. Schlegel, G. E. Scuseria, 
 M. A. Robb, J. R. Cheeseman, G. Scalmani, V. Barone, 
 G. A. Petersson, H. Nakatsuji, X. Li, M. Caricato, A. V. Marenich, 
 J. Bloino, B. G. Janesko, R. Gomperts, B. Mennucci, H. P. Hratchian, 
 J. V. Ortiz, A. F. Izmaylov, J. L. Sonnenberg, D. Williams-Young, 
 F. Ding, F. Lipparini, F. Egidi, J. Goings, B. Peng, A. Petrone, 
 T. Henderson, D. Ranasinghe, V. G. Zakrzewski, J. Gao, N. Rega, 
 G. Zheng, W. Liang, M. Hada, M. Ehara, K. Toyota, R. Fukuda, 
 J. Hasegawa, M. Ishida, T. Nakajima, Y. Honda, O. Kitao, H. Nakai, 
 T. Vreven, K. Throssell, J. A. Montgomery, Jr., J. E. Peralta, 
 F. Ogliaro, M. J. Bearpark, J. J. Heyd, E. N. Brothers, K. N. Kudin, 
 V. N. Staroverov, T. A. Keith, R. Kobayashi, J. Normand, 
 K. Raghavachari, A. P. Rendell, J. C. Burant, S. S. Iyengar, 
 J. Tomasi, M. Cossi, J. M. Millam, M. Klene, C. Adamo, R. Cammi, 
 J. W. Ochterski, R. L. Martin, K. Morokuma, O. Farkas, 
 J. B. Foresman, and D. J. Fox, Gaussian, Inc., Wallingford CT, 2016.
 
 ******************************************
 Gaussian 16:  ES64L-G16RevA.03 25-Dec-2016
                14-Jan-2023 
 ******************************************
 %nprocs=12
 Will use up to   12 processors via shared memory.
 %mem=16GB
 %oldchk=1nsi_II_Qn.chk
 %chk=1nsi_II_Q.chk
 Copying data from "1nsi_II_Qn.chk" to current chk file "1nsi_II_Q.chk"
 IOpt=  2 FromEx=T IUOpen= 4 IOptOp= 5 NList=   0 IFRang= 0 IUIn= 4 IUOut= 2.
 ----------------------------------------------------------------------
 # PBE1PBE/def2TZVP guess=read scf=qc empiricaldispersion=GD3BJ scf=max
 cycle=999 geom=check pop=nbo
 ----------------------------------------------------------------------
 1/29=2,38=1,172=1/1;
 2/12=2,40=1/2;
 3/5=44,7=101,11=2,14=-4,25=1,30=1,74=-13,116=-2,124=41/1,2,3;
 4/5=1/1;
 5/5=2,7=999,8=3,38=6/8;
 6/7=2,8=2,9=2,10=2,28=1,40=1/1,7;
 99/5=1,9=1/99;
 ---------
 1nsi_II_Q
 ---------
 Structure from the checkpoint file:  "1nsi_II_Q.chk"
 Charge =  0 Multiplicity = 5
 Z-Matrix found in chk file.
 C,0,8.683,56.271,21.173
 S,0,7.492,57.354,20.386999
 C,0,11.139,59.296001,19.858999
 C,0,6.717,61.168999,19.878
 C,0,5.541,58.146999,16.419001
 C,0,9.626,55.710999,17.129
 C,0,10.08,60.132999,20.052999
 C,0,10.209,61.414001,20.698999
 C,0,8.939,61.889999,20.819
 C,0,8.059,60.938999,20.156
 C,0,8.521,63.179001,21.527
 C,0,11.493,62.182999,21.000999
 C,0,12.287,62.603001,19.759001
 C,0,13.375,63.629002,20.063
 O,0,13.388,64.166,21.190001
 O,0,14.214,63.903999,19.176001
 C,0,5.93,60.422001,19.016001
 C,0,4.599,60.798,18.556
 C,0,4.289,59.960999,17.559999
 C,0,5.419,59.07,17.402
 C,0,3.698,61.876999,19.104
 C,0,3.139,60.019001,16.823999
 C,0,2.214,59.028999,16.809999
 C,0,6.584,57.259998,16.294001
 C,0,6.606,56.187,15.315
 C,0,7.735,55.472,15.556
 C,0,8.388,56.108002,16.673
 C,0,5.524,55.921001,14.287
 C,0,8.262,54.355999,14.932
 C,0,7.45527725,53.53595165,14.21555894
 C,0,10.364,56.419998,18.035
 C,0,11.779,56.195999,18.267
 C,0,12.222,57.285999,18.892
 C,0,11.079,58.130001,19.153999
 C,0,12.603,54.959999,17.965
 C,0,13.668,57.611,19.145
 C,0,14.242,58.657001,18.195999
 C,0,15.678,59.006001,18.523001
 O,0,16.295,58.268002,19.313
 O,0,16.194,60.016998,18.002001
 N,0,8.772,59.867001,19.68
 N,0,6.405,59.318001,18.329
 N,0,7.668,57.205002,17.142
 N,0,9.913,57.602001,18.620001
 Fe,0,8.095,58.400002,18.535999
 H,0,9.57273242,56.82172996,21.39654581
 H,0,8.26751839,55.88156865,22.07887982
 H,0,8.92012541,55.46283285,20.51304743
 H,0,6.29637709,57.52133713,20.8955107
 H,0,17.25498808,58.26473575,19.31649639
 H,0,14.19676694,58.27902607,17.19600454
 H,0,13.64733558,59.54434984,18.25833885
 H,0,13.76544513,57.97128659,20.1477951
 H,0,14.24082392,56.71248141,19.04785523
 H,0,15.15268378,63.84442492,19.36815637
 H,0,12.74357457,61.73407301,19.33308574
 H,0,11.61009473,63.02173001,19.04390291
 H,0,11.23840153,63.06316035,21.55362511
 H,0,12.12028437,61.5678519,21.61174311
 H,0,12.07932527,59.5723408,20.28832953
 H,0,9.26385269,63.93189072,21.36505265
 H,0,7.58312169,63.51318037,21.1350709
 H,0,8.42348719,62.99404346,22.57637217
 H,0,13.53018244,55.01079002,18.4966512
 H,0,12.0635717,54.08813251,18.27121223
 H,0,12.79687707,54.90862767,16.9139659
 H,0,10.03279164,54.79574117,16.75253797
 H,0,6.25055167,61.9951344,20.37279922
 H,0,4.18576704,62.82565031,19.02007146
 H,0,2.78424397,61.89530536,18.5475696
 H,0,3.4850055,61.67526058,20.13299706
 H,0,5.88137351,55.21390021,13.56783893
 H,0,4.65750682,55.5262992,14.77515988
 H,0,5.26944017,56.83506054,13.79243509
 H,0,4.76587902,58.10459957,15.68259775
 H,0,2.47356061,58.04939878,17.15338174
 H,0,1.22397784,59.2268041,16.45555682
 H,0,2.96004313,60.89002013,16.22885186
 H,0,9.30669202,54.140012,15.01487456
 H,0,7.82375583,52.59378319,13.86707346
 H,0,6.44985103,53.83065258,13.99837358
 Recover connectivity data from disk.
 Stoichiometry    C35H36FeN4O4S(5)
 Framework group  C1[X(C35H36FeN4O4S)]
 Deg. of freedom   237
 Full point group                 C1      NOp   1
 Largest Abelian subgroup         C1      NOp   1
 Largest concise Abelian subgroup C1      NOp   1
                         Standard orientation:                         
 ---------------------------------------------------------------------
 Center     Atomic      Atomic             Coordinates (Angstroms)
 Number     Number       Type             X           Y           Z
 ---------------------------------------------------------------------
      1          6           0        0.482793    0.900315    3.602364
      2         16           0        1.453364   -0.179138    2.552631
      3          6           0       -2.286643   -0.070617    0.721968
      4          6           0        1.114024   -3.446392    0.402323
      5          6           0        4.145897   -0.099652   -1.042394
      6          6           0        1.008312    3.318595    0.221160
      7          6           0       -1.649705   -1.272704    0.627219
      8          6           0       -2.357679   -2.525856    0.569728
      9          6           0       -1.395731   -3.488733    0.607133
     10          6           0       -0.107914   -2.810871    0.587063
     11          6           0       -1.630996   -4.998196    0.667829
     12          6           0       -3.846021   -2.747069    0.310651
     13          6           0       -4.324452   -2.284257   -1.070039
     14          6           0       -5.716677   -2.798965   -1.424469
     15          8           0       -6.230844   -3.673127   -0.696361
     16          8           0       -6.295988   -2.335664   -2.432468
     17          6           0        2.313421   -2.821186    0.100693
     18          6           0        3.533980   -3.501969   -0.313198
     19          6           0        4.370816   -2.553825   -0.748418
     20          6           0        3.675950   -1.291885   -0.605551
     21          6           0        3.847644   -4.975579   -0.232980
     22          6           0        5.609250   -2.790811   -1.275369
     23          6           0        6.756966   -2.350939   -0.705118
     24          6           0        3.518488    1.110306   -0.861828
     25          6           0        4.124278    2.383378   -1.211913
     26          6           0        3.256838    3.345159   -0.803906
     27          6           0        2.137205    2.657317   -0.210701
     28          6           0        5.489191    2.554719   -1.849032
     29          6           0        3.314811    4.724424   -0.886558
     30          6           0        4.511535    5.345286   -1.024218
     31          6           0       -0.148089    2.687440    0.585216
     32          6           0       -1.424106    3.365964    0.717924
     33          6           0       -2.349624    2.407951    0.693386
     34          6           0       -1.659275    1.139075    0.665085
     35          6           0       -1.692418    4.841866    0.936089
     36          6           0       -3.831104    2.638570    0.581210
     37          6           0       -4.393340    2.381011   -0.812257
     38          6           0       -5.895274    2.559035   -0.869957
     39          8           0       -6.456653    3.115721    0.091491
     40          8           0       -6.521448    2.140493   -1.866221
     41          7           0       -0.275502   -1.448508    0.589689
     42          7           0        2.433301   -1.448847   -0.036151
     43          7           0        2.305392    1.274170   -0.230379
     44          7           0       -0.283645    1.300242    0.593228
     45         26           0        1.133022   -0.075088    0.368487
     46          1           0       -0.558351    0.726770    3.426860
     47          1           0        0.709992    0.698764    4.628355
     48          1           0        0.717022    1.920163    3.378874
     49          1           0        2.329011   -1.007490    3.065639
     50          1           0       -7.322996    3.513134   -0.023019
     51          1           0       -3.937433    3.061554   -1.500668
     52          1           0       -4.152010    1.380031   -1.103289
     53          1           0       -4.329444    1.993063    1.273943
     54          1           0       -4.038897    3.653237    0.849858
     55          1           0       -7.181609   -1.973756   -2.353111
     56          1           0       -4.338861   -1.214502   -1.087830
     57          1           0       -3.631684   -2.631511   -1.807865
     58          1           0       -4.055042   -3.791869    0.408644
     59          1           0       -4.401729   -2.217924    1.056369
     60          1           0       -3.349012   -0.076871    0.849384
     61          1           0       -2.488086   -5.249558    0.078664
     62          1           0       -0.772388   -5.508698    0.284320
     63          1           0       -1.797167   -5.292734    1.682981
     64          1           0       -2.702980    4.976453    1.260975
     65          1           0       -1.024668    5.219312    1.682108
     66          1           0       -1.538999    5.371619    0.019179
     67          1           0        1.038583    4.386832    0.274585
     68          1           0        1.130220   -4.511647    0.501664
     69          1           0        3.136502   -5.523799   -0.814901
     70          1           0        4.831900   -5.151979   -0.613797
     71          1           0        3.796977   -5.296032    0.786649
     72          1           0        5.600975    3.563818   -2.186851
     73          1           0        6.249182    2.333354   -1.129094
     74          1           0        5.580774    1.887918   -2.680830
     75          1           0        5.077467   -0.099049   -1.568776
     76          1           0        6.726243   -1.569445    0.025103
     77          1           0        7.694028   -2.785069   -0.985019
     78          1           0        5.675925   -3.351951   -2.183981
     79          1           0        2.414791    5.301366   -0.841817
     80          1           0        4.576460    6.409054   -0.928914
     81          1           0        5.391483    4.771722   -1.228215
 ---------------------------------------------------------------------
 Rotational constants (GHZ):           0.0864949           0.0521704           0.0369133
 Standard basis: def2TZVP (5D, 7F)
 There are  1858 symmetry adapted cartesian basis functions of A   symmetry.
 There are  1631 symmetry adapted basis functions of A   symmetry.
  1631 basis functions,  2652 primitive gaussians,  1858 cartesian basis functions
   176 alpha electrons      172 beta electrons
       nuclear repulsion energy      6624.8971343292 Hartrees.
 NAtoms=   81 NActive=   81 NUniq=   81 SFac= 1.00D+00 NAtFMM=   60 NAOKFM=T Big=T
 Integral buffers will be    131072 words long.
 Raffenetti 2 integral format.
 Two-electron integral symmetry is turned on.
 Nuclear repulsion after empirical dispersion term =     6624.7790480530 Hartrees.
 One-electron integrals computed using PRISM.
   1 Symmetry operations used in ECPInt.
 ECPInt:  NShTT=  208335 NPrTT=  650379 LenC2=  152144 LenP2D=  309872.
 LDataN:  DoStor=T MaxTD1= 6 Len=  172
 NBasis=  1631 RedAO= T EigKep=  3.30D-06  NBF=  1631
 NBsUse=  1631 1.00D-06 EigRej= -1.00D+00 NBFU=  1631
 Initial guess from the checkpoint file:  "1nsi_II_Q.chk"
 B after Tr=     0.000000    0.000000    0.000000
         Rot=    1.000000   -0.000000   -0.000000   -0.000000 Ang=   0.00 deg.
 Initial guess <Sx>= 0.0000 <Sy>= 0.0000 <Sz>= 2.0000 <S**2>= 6.0573 S= 2.0114
 LinEq1:  Iter=  0 NonCon=     1 RMS=2.76D-05 Max=6.51D-03 NDo=     1
 AX will form     1 AO Fock derivatives at one time.
 LinEq1:  Iter=  1 NonCon=     1 RMS=4.45D-05 Max=2.71D-02 NDo=     1
 LinEq1:  Iter=  2 NonCon=     1 RMS=2.63D-05 Max=4.03D-03 NDo=     1
 LinEq1:  Iter=  3 NonCon=     1 RMS=1.63D-05 Max=2.31D-03 NDo=     1
 LinEq1:  Iter=  4 NonCon=     1 RMS=1.61D-05 Max=2.50D-03 NDo=     1
 LinEq1:  Iter=  5 NonCon=     1 RMS=9.62D-06 Max=2.37D-03 NDo=     1
 LinEq1:  Iter=  6 NonCon=     1 RMS=1.21D-05 Max=3.38D-03 NDo=     1
 LinEq1:  Iter=  7 NonCon=     1 RMS=1.51D-05 Max=4.60D-03 NDo=     1
 LinEq1:  Iter=  8 NonCon=     1 RMS=1.20D-05 Max=2.18D-03 NDo=     1
 LinEq1:  Iter=  9 NonCon=     1 RMS=1.24D-05 Max=1.80D-03 NDo=     1
 LinEq1:  Iter= 10 NonCon=     1 RMS=1.01D-05 Max=1.36D-03 NDo=     1
 LinEq1:  Iter= 11 NonCon=     1 RMS=1.07D-05 Max=2.15D-03 NDo=     1
 LinEq1:  Iter= 12 NonCon=     1 RMS=1.13D-05 Max=1.74D-03 NDo=     1
 LinEq1:  Iter= 13 NonCon=     1 RMS=1.01D-05 Max=1.89D-03 NDo=     1
 LinEq1:  Iter= 14 NonCon=     1 RMS=8.08D-06 Max=1.26D-03 NDo=     1
 LinEq1:  Iter= 15 NonCon=     1 RMS=6.62D-06 Max=7.22D-04 NDo=     1
 LinEq1:  Iter= 16 NonCon=     1 RMS=5.17D-06 Max=3.88D-04 NDo=     1
 LinEq1:  Iter= 17 NonCon=     1 RMS=3.98D-06 Max=4.15D-04 NDo=     1
 LinEq1:  Iter= 18 NonCon=     1 RMS=3.52D-06 Max=4.56D-04 NDo=     1
 LinEq1:  Iter= 19 NonCon=     1 RMS=3.05D-06 Max=3.39D-04 NDo=     1
 LinEq1:  Iter= 20 NonCon=     1 RMS=2.66D-06 Max=2.66D-04 NDo=     1
 LinEq1:  Iter= 21 NonCon=     1 RMS=1.84D-06 Max=2.67D-04 NDo=     1
 LinEq1:  Iter= 22 NonCon=     1 RMS=1.47D-06 Max=2.11D-04 NDo=     1
 LinEq1:  Iter= 23 NonCon=     1 RMS=1.40D-06 Max=3.03D-04 NDo=     1
 LinEq1:  Iter= 24 NonCon=     1 RMS=1.16D-06 Max=2.18D-04 NDo=     1
 LinEq1:  Iter= 25 NonCon=     1 RMS=8.17D-07 Max=8.12D-05 NDo=     1
 LinEq1:  Iter= 26 NonCon=     1 RMS=6.48D-07 Max=6.57D-05 NDo=     1
 LinEq1:  Iter= 27 NonCon=     1 RMS=5.18D-07 Max=5.26D-05 NDo=     1
 LinEq1:  Iter= 28 NonCon=     1 RMS=3.26D-07 Max=4.32D-05 NDo=     1
 LinEq1:  Iter= 29 NonCon=     1 RMS=2.93D-07 Max=3.74D-05 NDo=     1
 LinEq1:  Iter= 30 NonCon=     1 RMS=2.21D-07 Max=2.50D-05 NDo=     1
 LinEq1:  Iter= 31 NonCon=     1 RMS=1.62D-07 Max=1.63D-05 NDo=     1
 LinEq1:  Iter= 32 NonCon=     1 RMS=1.12D-07 Max=1.09D-05 NDo=     1
 LinEq1:  Iter= 33 NonCon=     1 RMS=6.93D-08 Max=6.73D-06 NDo=     1
 LinEq1:  Iter= 34 NonCon=     1 RMS=5.07D-08 Max=7.94D-06 NDo=     1
 LinEq1:  Iter= 35 NonCon=     1 RMS=4.06D-08 Max=4.14D-06 NDo=     1
 LinEq1:  Iter= 36 NonCon=     1 RMS=2.87D-08 Max=5.10D-06 NDo=     1
 LinEq1:  Iter= 37 NonCon=     1 RMS=1.80D-08 Max=2.62D-06 NDo=     1
 LinEq1:  Iter= 38 NonCon=     1 RMS=1.44D-08 Max=1.40D-06 NDo=     1
 LinEq1:  Iter= 39 NonCon=     1 RMS=1.19D-08 Max=1.08D-06 NDo=     1
 LinEq1:  Iter= 40 NonCon=     0 RMS=7.75D-09 Max=5.66D-07 NDo=     1
 Linear equations converged to 7.121D-08 7.121D-07 after    40 iterations.
 Gradient too large for Newton-Raphson -- use scaled steepest descent instead.
     Accept linear search using points  1 and  2.
 LinEq1:  Iter=  0 NonCon=     1 RMS=2.70D-05 Max=1.00D-02 NDo=     1
 LinEq1:  Iter=  1 NonCon=     1 RMS=1.09D-04 Max=5.98D-02 NDo=     1
 LinEq1:  Iter=  2 NonCon=     1 RMS=5.63D-05 Max=7.49D-03 NDo=     1
 LinEq1:  Iter=  3 NonCon=     1 RMS=6.80D-05 Max=1.74D-02 NDo=     1
 LinEq1:  Iter=  4 NonCon=     1 RMS=5.08D-05 Max=1.13D-02 NDo=     1
 LinEq1:  Iter=  5 NonCon=     1 RMS=4.19D-05 Max=9.44D-03 NDo=     1
 LinEq1:  Iter=  6 NonCon=     1 RMS=5.32D-05 Max=1.25D-02 NDo=     1
 LinEq1:  Iter=  7 NonCon=     1 RMS=5.81D-05 Max=1.46D-02 NDo=     1
 LinEq1:  Iter=  8 NonCon=     1 RMS=6.00D-05 Max=1.82D-02 NDo=     1
 LinEq1:  Iter=  9 NonCon=     1 RMS=4.02D-05 Max=3.88D-03 NDo=     1
 LinEq1:  Iter= 10 NonCon=     1 RMS=2.84D-05 Max=5.12D-03 NDo=     1
 LinEq1:  Iter= 11 NonCon=     1 RMS=2.96D-05 Max=8.93D-03 NDo=     1
 LinEq1:  Iter= 12 NonCon=     1 RMS=3.07D-05 Max=6.59D-03 NDo=     1
 LinEq1:  Iter= 13 NonCon=     1 RMS=2.73D-05 Max=6.63D-03 NDo=     1
 LinEq1:  Iter= 14 NonCon=     1 RMS=2.80D-05 Max=5.22D-03 NDo=     1
 LinEq1:  Iter= 15 NonCon=     1 RMS=2.52D-05 Max=4.59D-03 NDo=     1
 LinEq1:  Iter= 16 NonCon=     1 RMS=2.05D-05 Max=4.61D-03 NDo=     1
 LinEq1:  Iter= 17 NonCon=     1 RMS=1.70D-05 Max=2.93D-03 NDo=     1
 LinEq1:  Iter= 18 NonCon=     1 RMS=1.57D-05 Max=1.80D-03 NDo=     1
 LinEq1:  Iter= 19 NonCon=     1 RMS=9.29D-06 Max=8.62D-04 NDo=     1
 LinEq1:  Iter= 20 NonCon=     1 RMS=6.97D-06 Max=8.43D-04 NDo=     1
 LinEq1:  Iter= 21 NonCon=     1 RMS=5.63D-06 Max=6.31D-04 NDo=     1
 LinEq1:  Iter= 22 NonCon=     1 RMS=4.88D-06 Max=7.00D-04 NDo=     1
 LinEq1:  Iter= 23 NonCon=     1 RMS=4.33D-06 Max=7.06D-04 NDo=     1
 LinEq1:  Iter= 24 NonCon=     1 RMS=3.22D-06 Max=6.03D-04 NDo=     1
 LinEq1:  Iter= 25 NonCon=     1 RMS=2.70D-06 Max=3.21D-04 NDo=     1
 LinEq1:  Iter= 26 NonCon=     1 RMS=2.00D-06 Max=2.08D-04 NDo=     1
 LinEq1:  Iter= 27 NonCon=     1 RMS=1.62D-06 Max=2.68D-04 NDo=     1
 LinEq1:  Iter= 28 NonCon=     1 RMS=1.32D-06 Max=1.32D-04 NDo=     1
 LinEq1:  Iter= 29 NonCon=     1 RMS=9.82D-07 Max=9.72D-05 NDo=     1
 LinEq1:  Iter= 30 NonCon=     1 RMS=7.37D-07 Max=6.35D-05 NDo=     1
 LinEq1:  Iter= 31 NonCon=     1 RMS=5.74D-07 Max=5.99D-05 NDo=     1
 LinEq1:  Iter= 32 NonCon=     1 RMS=3.88D-07 Max=4.01D-05 NDo=     1
 LinEq1:  Iter= 33 NonCon=     1 RMS=2.96D-07 Max=3.80D-05 NDo=     1
 LinEq1:  Iter= 34 NonCon=     1 RMS=2.25D-07 Max=2.95D-05 NDo=     1
 LinEq1:  Iter= 35 NonCon=     1 RMS=1.69D-07 Max=2.14D-05 NDo=     1
 LinEq1:  Iter= 36 NonCon=     1 RMS=1.23D-07 Max=1.99D-05 NDo=     1
 LinEq1:  Iter= 37 NonCon=     1 RMS=8.26D-08 Max=6.92D-06 NDo=     1
 LinEq1:  Iter= 38 NonCon=     1 RMS=5.95D-08 Max=6.73D-06 NDo=     1
 LinEq1:  Iter= 39 NonCon=     1 RMS=4.35D-08 Max=4.39D-06 NDo=     1
 LinEq1:  Iter= 40 NonCon=     1 RMS=2.89D-08 Max=2.59D-06 NDo=     1
 LinEq1:  Iter= 41 NonCon=     1 RMS=1.95D-08 Max=2.01D-06 NDo=     1
 LinEq1:  Iter= 42 NonCon=     1 RMS=1.66D-08 Max=1.70D-06 NDo=     1
 LinEq1:  Iter= 43 NonCon=     1 RMS=1.09D-08 Max=9.36D-07 NDo=     1
 LinEq1:  Iter= 44 NonCon=     1 RMS=7.09D-09 Max=7.18D-07 NDo=     1
 LinEq1:  Iter= 45 NonCon=     0 RMS=5.45D-09 Max=5.14D-07 NDo=     1
 Linear equations converged to 7.022D-08 7.022D-07 after    45 iterations.
 Incorrect curvature in search direction -- initial direction reversed.
     Note:  rotation exceeds Pi/2.
     Minimum is close to point  7 DX= -1.28D-02 DF= -2.46D-07 DXR=  2.25D-03 DFR=  7.70D-05 which will be used.
 Gradient too large for Newton-Raphson -- use scaled steepest descent instead.
     Accept linear search using points  2 and  3.
 Gradient too large for Newton-Raphson -- use scaled steepest descent instead.
 Restarting incremental Fock formation.
     Minimum is close to point  4 DX=  1.48D-02 DF= -1.63D-06 DXR=  2.41D-02 DFR=  5.53D-04 which will be used.
 Gradient too large for Newton-Raphson -- use scaled steepest descent instead.
     Accept linear search using points  1 and  2.
 Gradient too large for Newton-Raphson -- use scaled steepest descent instead.
     Accept linear search using points  4 and  5.
     Minimum is close to point  5 DX= -1.71D-01 DF= -1.40D-05 DXR=  6.04D-02 DFR=  4.04D-03 which will be used.
 Gradient too large for Newton-Raphson -- use scaled steepest descent instead.
     Minimum is close to point  3 DX=  2.14D-03 DF= -2.72D-08 DXR=  5.33D-03 DFR=  2.84D-05 which will be used.
 Gradient too large for Newton-Raphson -- use scaled steepest descent instead.
     Accept linear search using points  1 and  2.
 Gradient too large for Newton-Raphson -- use scaled steepest descent instead.
     Accept linear search using points  1 and  2.
 Gradient too large for Newton-Raphson -- use scaled steepest descent instead.
 Gradient too large for Newton-Raphson -- use scaled steepest descent instead.
 Restarting incremental Fock formation.
     Minimum is close to point  3 DX= -1.40D-02 DF= -3.31D-06 DXR=  4.90D-02 DFR=  2.41D-03 which will be used.
 Gradient too large for Newton-Raphson -- use scaled steepest descent instead.
     Minimum is close to point  4 DX=  1.98D-02 DF= -2.29D-07 DXR=  1.95D-02 DFR=  3.78D-04 which will be used.
 Gradient too large for Newton-Raphson -- use scaled steepest descent instead.
     Accept linear search using points  1 and  2.
 Gradient too large for Newton-Raphson -- use scaled steepest descent instead.
 Gradient too large for Newton-Raphson -- use scaled steepest descent instead.
 Gradient too large for Newton-Raphson -- use scaled steepest descent instead.
 Gradient too large for Newton-Raphson -- use scaled steepest descent instead.
     Minimum is close to point  3 DX=  2.39D-02 DF= -9.16D-07 DXR=  7.38D-02 DFR=  5.47D-03 which will be used.
 LinEq1:  Iter=  0 NonCon=     1 RMS=3.51D-05 Max=1.57D-02 NDo=     1
 LinEq1:  Iter=  1 NonCon=     1 RMS=3.65D-05 Max=1.58D-02 NDo=     1
 LinEq1:  Iter=  2 NonCon=     1 RMS=2.91D-05 Max=7.63D-03 NDo=     1
 LinEq1:  Iter=  3 NonCon=     1 RMS=1.68D-05 Max=2.57D-03 NDo=     1
 LinEq1:  Iter=  4 NonCon=     1 RMS=8.53D-06 Max=1.50D-03 NDo=     1
 LinEq1:  Iter=  5 NonCon=     1 RMS=9.58D-06 Max=1.76D-03 NDo=     1
 LinEq1:  Iter=  6 NonCon=     1 RMS=9.38D-06 Max=1.47D-03 NDo=     1
 LinEq1:  Iter=  7 NonCon=     1 RMS=8.98D-06 Max=1.36D-03 NDo=     1
 LinEq1:  Iter=  8 NonCon=     1 RMS=7.57D-06 Max=1.39D-03 NDo=     1
 LinEq1:  Iter=  9 NonCon=     1 RMS=7.24D-06 Max=1.38D-03 NDo=     1
 LinEq1:  Iter= 10 NonCon=     1 RMS=7.34D-06 Max=1.25D-03 NDo=     1
 LinEq1:  Iter= 11 NonCon=     1 RMS=7.67D-06 Max=1.32D-03 NDo=     1
 LinEq1:  Iter= 12 NonCon=     1 RMS=6.70D-06 Max=1.17D-03 NDo=     1
 LinEq1:  Iter= 13 NonCon=     1 RMS=5.35D-06 Max=7.99D-04 NDo=     1
 LinEq1:  Iter= 14 NonCon=     1 RMS=3.54D-06 Max=3.32D-04 NDo=     1
 LinEq1:  Iter= 15 NonCon=     1 RMS=2.81D-06 Max=4.04D-04 NDo=     1
 LinEq1:  Iter= 16 NonCon=     1 RMS=2.11D-06 Max=3.51D-04 NDo=     1
 LinEq1:  Iter= 17 NonCon=     1 RMS=1.62D-06 Max=2.77D-04 NDo=     1
 LinEq1:  Iter= 18 NonCon=     1 RMS=1.36D-06 Max=2.82D-04 NDo=     1
 LinEq1:  Iter= 19 NonCon=     1 RMS=1.36D-06 Max=2.50D-04 NDo=     1
 LinEq1:  Iter= 20 NonCon=     1 RMS=1.12D-06 Max=1.54D-04 NDo=     1
 LinEq1:  Iter= 21 NonCon=     1 RMS=7.32D-07 Max=1.05D-04 NDo=     1
 LinEq1:  Iter= 22 NonCon=     1 RMS=5.12D-07 Max=7.06D-05 NDo=     1
 LinEq1:  Iter= 23 NonCon=     1 RMS=3.52D-07 Max=4.74D-05 NDo=     1
 LinEq1:  Iter= 24 NonCon=     1 RMS=2.86D-07 Max=4.02D-05 NDo=     1
 LinEq1:  Iter= 25 NonCon=     1 RMS=2.00D-07 Max=1.93D-05 NDo=     1
 LinEq1:  Iter= 26 NonCon=     1 RMS=1.70D-07 Max=1.79D-05 NDo=     1
 LinEq1:  Iter= 27 NonCon=     1 RMS=1.29D-07 Max=1.69D-05 NDo=     1
 LinEq1:  Iter= 28 NonCon=     1 RMS=8.59D-08 Max=8.42D-06 NDo=     1
 LinEq1:  Iter= 29 NonCon=     1 RMS=6.70D-08 Max=6.90D-06 NDo=     1
 LinEq1:  Iter= 30 NonCon=     1 RMS=4.85D-08 Max=5.93D-06 NDo=     1
 LinEq1:  Iter= 31 NonCon=     1 RMS=3.50D-08 Max=3.81D-06 NDo=     1
 LinEq1:  Iter= 32 NonCon=     1 RMS=2.51D-08 Max=3.44D-06 NDo=     1
 LinEq1:  Iter= 33 NonCon=     1 RMS=1.86D-08 Max=1.97D-06 NDo=     1
 LinEq1:  Iter= 34 NonCon=     1 RMS=1.20D-08 Max=1.01D-06 NDo=     1
 LinEq1:  Iter= 35 NonCon=     1 RMS=1.06D-08 Max=9.44D-07 NDo=     1
 LinEq1:  Iter= 36 NonCon=     1 RMS=7.97D-09 Max=7.31D-07 NDo=     1
 LinEq1:  Iter= 37 NonCon=     0 RMS=5.33D-09 Max=5.48D-07 NDo=     1
 Linear equations converged to 7.121D-08 7.121D-07 after    37 iterations.
 Restarting incremental Fock formation.
     Accept linear search using points  1 and  2.
 LinEq1:  Iter=  0 NonCon=     1 RMS=1.77D-05 Max=6.72D-03 NDo=     1
 LinEq1:  Iter=  1 NonCon=     1 RMS=2.53D-05 Max=7.89D-03 NDo=     1
 LinEq1:  Iter=  2 NonCon=     1 RMS=1.31D-05 Max=4.27D-03 NDo=     1
 LinEq1:  Iter=  3 NonCon=     1 RMS=1.64D-05 Max=5.59D-03 NDo=     1
 LinEq1:  Iter=  4 NonCon=     1 RMS=9.60D-06 Max=1.31D-03 NDo=     1
 LinEq1:  Iter=  5 NonCon=     1 RMS=8.97D-06 Max=1.41D-03 NDo=     1
 LinEq1:  Iter=  6 NonCon=     1 RMS=9.18D-06 Max=1.49D-03 NDo=     1
 LinEq1:  Iter=  7 NonCon=     1 RMS=8.02D-06 Max=1.21D-03 NDo=     1
 LinEq1:  Iter=  8 NonCon=     1 RMS=6.92D-06 Max=1.11D-03 NDo=     1
 LinEq1:  Iter=  9 NonCon=     1 RMS=5.69D-06 Max=1.04D-03 NDo=     1
 LinEq1:  Iter= 10 NonCon=     1 RMS=5.25D-06 Max=9.49D-04 NDo=     1
 LinEq1:  Iter= 11 NonCon=     1 RMS=4.86D-06 Max=6.68D-04 NDo=     1
 LinEq1:  Iter= 12 NonCon=     1 RMS=3.33D-06 Max=3.81D-04 NDo=     1
 LinEq1:  Iter= 13 NonCon=     1 RMS=2.72D-06 Max=3.70D-04 NDo=     1
 LinEq1:  Iter= 14 NonCon=     1 RMS=2.43D-06 Max=3.99D-04 NDo=     1
 LinEq1:  Iter= 15 NonCon=     1 RMS=1.94D-06 Max=4.26D-04 NDo=     1
 LinEq1:  Iter= 16 NonCon=     1 RMS=1.79D-06 Max=2.91D-04 NDo=     1
 LinEq1:  Iter= 17 NonCon=     1 RMS=1.71D-06 Max=2.13D-04 NDo=     1
 LinEq1:  Iter= 18 NonCon=     1 RMS=1.30D-06 Max=1.63D-04 NDo=     1
 LinEq1:  Iter= 19 NonCon=     1 RMS=1.05D-06 Max=1.38D-04 NDo=     1
 LinEq1:  Iter= 20 NonCon=     1 RMS=7.52D-07 Max=9.12D-05 NDo=     1
 LinEq1:  Iter= 21 NonCon=     1 RMS=6.35D-07 Max=7.45D-05 NDo=     1
 LinEq1:  Iter= 22 NonCon=     1 RMS=4.63D-07 Max=6.08D-05 NDo=     1
 LinEq1:  Iter= 23 NonCon=     1 RMS=2.92D-07 Max=4.63D-05 NDo=     1
 LinEq1:  Iter= 24 NonCon=     1 RMS=2.46D-07 Max=4.81D-05 NDo=     1
 LinEq1:  Iter= 25 NonCon=     1 RMS=1.92D-07 Max=3.28D-05 NDo=     1
 LinEq1:  Iter= 26 NonCon=     1 RMS=1.35D-07 Max=1.89D-05 NDo=     1
 LinEq1:  Iter= 27 NonCon=     1 RMS=9.39D-08 Max=9.45D-06 NDo=     1
 LinEq1:  Iter= 28 NonCon=     1 RMS=7.59D-08 Max=8.97D-06 NDo=     1
 LinEq1:  Iter= 29 NonCon=     1 RMS=4.86D-08 Max=4.64D-06 NDo=     1
 LinEq1:  Iter= 30 NonCon=     1 RMS=3.70D-08 Max=4.80D-06 NDo=     1
 LinEq1:  Iter= 31 NonCon=     1 RMS=3.18D-08 Max=3.68D-06 NDo=     1
 LinEq1:  Iter= 32 NonCon=     1 RMS=2.26D-08 Max=2.63D-06 NDo=     1
 LinEq1:  Iter= 33 NonCon=     1 RMS=1.87D-08 Max=2.39D-06 NDo=     1
 LinEq1:  Iter= 34 NonCon=     1 RMS=1.26D-08 Max=1.37D-06 NDo=     1
 LinEq1:  Iter= 35 NonCon=     1 RMS=8.62D-09 Max=1.05D-06 NDo=     1
 LinEq1:  Iter= 36 NonCon=     0 RMS=5.55D-09 Max=6.54D-07 NDo=     1
 Linear equations converged to 7.121D-08 7.121D-07 after    36 iterations.
     Minimum is close to point  2 DX=  1.77D-02 DF= -9.84D-09 DXR=  1.74D-02 DFR=  3.03D-04 which will be used.
 LinEq1:  Iter=  0 NonCon=     1 RMS=1.85D-07 Max=8.47D-05 NDo=     1
 LinEq1:  Iter=  1 NonCon=     1 RMS=2.79D-07 Max=1.23D-04 NDo=     1
 LinEq1:  Iter=  2 NonCon=     1 RMS=2.45D-07 Max=6.95D-05 NDo=     1
 LinEq1:  Iter=  3 NonCon=     1 RMS=1.77D-07 Max=2.37D-05 NDo=     1
 LinEq1:  Iter=  4 NonCon=     1 RMS=1.01D-07 Max=2.22D-05 NDo=     1
 LinEq1:  Iter=  5 NonCon=     1 RMS=9.64D-08 Max=1.62D-05 NDo=     1
 LinEq1:  Iter=  6 NonCon=     1 RMS=8.93D-08 Max=2.00D-05 NDo=     1
 LinEq1:  Iter=  7 NonCon=     1 RMS=7.81D-08 Max=1.27D-05 NDo=     1
 LinEq1:  Iter=  8 NonCon=     1 RMS=7.41D-08 Max=1.46D-05 NDo=     1
 LinEq1:  Iter=  9 NonCon=     1 RMS=5.50D-08 Max=1.14D-05 NDo=     1
 LinEq1:  Iter= 10 NonCon=     1 RMS=3.73D-08 Max=8.68D-06 NDo=     1
 LinEq1:  Iter= 11 NonCon=     1 RMS=3.93D-08 Max=9.76D-06 NDo=     1
 LinEq1:  Iter= 12 NonCon=     1 RMS=4.69D-08 Max=8.60D-06 NDo=     1
 LinEq1:  Iter= 13 NonCon=     1 RMS=3.99D-08 Max=6.41D-06 NDo=     1
 LinEq1:  Iter= 14 NonCon=     1 RMS=3.12D-08 Max=4.77D-06 NDo=     1
 LinEq1:  Iter= 15 NonCon=     1 RMS=2.49D-08 Max=4.38D-06 NDo=     1
 LinEq1:  Iter= 16 NonCon=     1 RMS=1.24D-08 Max=2.02D-06 NDo=     1
 LinEq1:  Iter= 17 NonCon=     1 RMS=9.39D-09 Max=1.47D-06 NDo=     1
 LinEq1:  Iter= 18 NonCon=     1 RMS=7.50D-09 Max=9.80D-07 NDo=     1
 LinEq1:  Iter= 19 NonCon=     1 RMS=5.71D-09 Max=7.24D-07 NDo=     1
 LinEq1:  Iter= 20 NonCon=     1 RMS=4.57D-09 Max=6.52D-07 NDo=     1
 LinEq1:  Iter= 21 NonCon=     1 RMS=3.49D-09 Max=4.90D-07 NDo=     1
 LinEq1:  Iter= 22 NonCon=     1 RMS=2.52D-09 Max=3.77D-07 NDo=     1
 LinEq1:  Iter= 23 NonCon=     1 RMS=1.82D-09 Max=2.89D-07 NDo=     1
 LinEq1:  Iter= 24 NonCon=     1 RMS=1.43D-09 Max=2.25D-07 NDo=     1
 LinEq1:  Iter= 25 NonCon=     1 RMS=1.04D-09 Max=1.83D-07 NDo=     1
 LinEq1:  Iter= 26 NonCon=     1 RMS=9.84D-10 Max=1.47D-07 NDo=     1
 LinEq1:  Iter= 27 NonCon=     1 RMS=8.20D-10 Max=1.03D-07 NDo=     1
 LinEq1:  Iter= 28 NonCon=     1 RMS=7.11D-10 Max=5.31D-08 NDo=     1
 LinEq1:  Iter= 29 NonCon=     1 RMS=5.14D-10 Max=4.79D-08 NDo=     1
 LinEq1:  Iter= 30 NonCon=     1 RMS=3.61D-10 Max=3.67D-08 NDo=     1
 LinEq1:  Iter= 31 NonCon=     1 RMS=2.62D-10 Max=2.29D-08 NDo=     1
 LinEq1:  Iter= 32 NonCon=     1 RMS=2.15D-10 Max=2.54D-08 NDo=     1
 LinEq1:  Iter= 33 NonCon=     1 RMS=1.65D-10 Max=1.90D-08 NDo=     1
 LinEq1:  Iter= 34 NonCon=     1 RMS=1.28D-10 Max=1.43D-08 NDo=     1
 LinEq1:  Iter= 35 NonCon=     1 RMS=1.03D-10 Max=1.60D-08 NDo=     1
 LinEq1:  Iter= 36 NonCon=     1 RMS=6.97D-11 Max=8.27D-09 NDo=     1
 LinEq1:  Iter= 37 NonCon=     0 RMS=4.61D-11 Max=4.79D-09 NDo=     1
 Linear equations converged to 6.170D-10 6.170D-09 after    37 iterations.
 SCF Done:  E(UPBE1PBE) =  -3535.48563363     a.u. after   22 cycles
            Convg  =    0.2402D-06                   260 Fock formations.
              S**2 =  6.0801                  -V/T =  2.0025
 <Sx>= 0.0000 <Sy>= 0.0000 <Sz>= 2.0000 <S**2>= 6.0801 S= 2.0160
 <L.S>= 0.000000000000E+00
 Annihilation of the first spin contaminant:
 S**2 before annihilation     6.0801,   after     6.0006

 **********************************************************************

            Population analysis using the SCF density.

 **********************************************************************

 Orbital symmetries:
 Alpha Orbitals:
       Occupied  (A) (A) (A) (A) (A) (A) (A) (A) (A) (A) (A) (A)
                 (A) (A) (A) (A) (A) (A) (A) (A) (A) (A) (A) (A)
                 (A) (A) (A) (A) (A) (A) (A) (A) (A) (A) (A) (A)
                 (A) (A) (A) (A) (A) (A) (A) (A) (A) (A) (A) (A)
                 (A) (A) (A) (A) (A) (A) (A) (A) (A) (A) (A) (A)
                 (A) (A) (A) (A) (A) (A) (A) (A) (A) (A) (A) (A)
                 (A) (A) (A) (A) (A) (A) (A) (A) (A) (A) (A) (A)
                 (A) (A) (A) (A) (A) (A) (A) (A) (A) (A) (A) (A)
                 (A) (A) (A) (A) (A) (A) (A) (A) (A) (A) (A) (A)
                 (A) (A) (A) (A) (A) (A) (A) (A) (A) (A) (A) (A)
                 (A) (A) (A) (A) (A) (A) (A) (A) (A) (A) (A) (A)
                 (A) (A) (A) (A) (A) (A) (A) (A) (A) (A) (A) (A)
                 (A) (A) (A) (A) (A) (A) (A) (A) (A) (A) (A) (A)
                 (A) (A) (A) (A) (A) (A) (A) (A) (A) (A) (A) (A)
                 (A) (A) (A) (A) (A) (A) (A) (A)
       Virtual   (A) (A) (A) (A) (A) (A) (A) (A) (A) (A) (A) (A)
                 (A) (A) (A) (A) (A) (A) (A) (A) (A) (A) (A) (A)
                 (A) (A) (A) (A) (A) (A) (A) (A) (A) (A) (A) (A)
                 (A) (A) (A) (A) (A) (A) (A) (A) (A) (A) (A) (A)
                 (A) (A) (A) (A) (A) (A) (A) (A) (A) (A) (A) (A)
                 (A) (A) (A) (A) (A) (A) (A) (A) (A) (A) (A) (A)
                 (A) (A) (A) (A) (A) (A) (A) (A) (A) (A) (A) (A)
                 (A) (A) (A) (A) (A) (A) (A) (A) (A) (A) (A) (A)
                 (A) (A) (A) (A) (A) (A) (A) (A) (A) (A) (A) (A)
                 (A) (A) (A) (A) (A) (A) (A) (A) (A) (A) (A) (A)
                 (A) (A) (A) (A) (A) (A) (A) (A) (A) (A) (A) (A)
                 (A) (A) (A) (A) (A) (A) (A) (A) (A) (A) (A) (A)
                 (A) (A) (A) (A) (A) (A) (A) (A) (A) (A) (A) (A)
                 (A) (A) (A) (A) (A) (A) (A) (A) (A) (A) (A) (A)
                 (A) (A) (A) (A) (A) (A) (A) (A) (A) (A) (A) (A)
                 (A) (A) (A) (A) (A) (A) (A) (A) (A) (A) (A) (A)
                 (A) (A) (A) (A) (A) (A) (A) (A) (A) (A) (A) (A)
                 (A) (A) (A) (A) (A) (A) (A) (A) (A) (A) (A) (A)
                 (A) (A) (A) (A) (A) (A) (A) (A) (A) (A) (A) (A)
                 (A) (A) (A) (A) (A) (A) (A) (A) (A) (A) (A) (A)
                 (A) (A) (A) (A) (A) (A) (A) (A) (A) (A) (A) (A)
                 (A) (A) (A) (A) (A) (A) (A) (A) (A) (A) (A) (A)
                 (A) (A) (A) (A) (A) (A) (A) (A) (A) (A) (A) (A)
                 (A) (A) (A) (A) (A) (A) (A) (A) (A) (A) (A) (A)
                 (A) (A) (A) (A) (A) (A) (A) (A) (A) (A) (A) (A)
                 (A) (A) (A) (A) (A) (A) (A) (A) (A) (A) (A) (A)
                 (A) (A) (A) (A) (A) (A) (A) (A) (A) (A) (A) (A)
                 (A) (A) (A) (A) (A) (A) (A) (A) (A) (A) (A) (A)
                 (A) (A) (A) (A) (A) (A) (A) (A) (A) (A) (A) (A)
                 (A) (A) (A) (A) (A) (A) (A) (A) (A) (A) (A) (A)
                 (A) (A) (A) (A) (A) (A) (A) (A) (A) (A) (A) (A)
                 (A) (A) (A) (A) (A) (A) (A) (A) (A) (A) (A) (A)
                 (A) (A) (A) (A) (A) (A) (A) (A) (A) (A) (A) (A)
                 (A) (A) (A) (A) (A) (A) (A) (A) (A) (A) (A) (A)
                 (A) (A) (A) (A) (A) (A) (A) (A) (A) (A) (A) (A)
                 (A) (A) (A) (A) (A) (A) (A) (A) (A) (A) (A) (A)
                 (A) (A) (A) (A) (A) (A) (A) (A) (A) (A) (A) (A)
                 (A) (A) (A) (A) (A) (A) (A) (A) (A) (A) (A) (A)
                 (A) (A) (A) (A) (A) (A) (A) (A) (A) (A) (A) (A)
                 (A) (A) (A) (A) (A) (A) (A) (A) (A) (A) (A) (A)
                 (A) (A) (A) (A) (A) (A) (A) (A) (A) (A) (A) (A)
                 (A) (A) (A) (A) (A) (A) (A) (A) (A) (A) (A) (A)
                 (A) (A) (A) (A) (A) (A) (A) (A) (A) (A) (A) (A)
                 (A) (A) (A) (A) (A) (A) (A) (A) (A) (A) (A) (A)
                 (A) (A) (A) (A) (A) (A) (A) (A) (A) (A) (A) (A)
                 (A) (A) (A) (A) (A) (A) (A) (A) (A) (A) (A) (A)
                 (A) (A) (A) (A) (A) (A) (A) (A) (A) (A) (A) (A)
                 (A) (A) (A) (A) (A) (A) (A) (A) (A) (A) (A) (A)
                 (A) (A) (A) (A) (A) (A) (A) (A) (A) (A) (A) (A)
                 (A) (A) (A) (A) (A) (A) (A) (A) (A) (A) (A) (A)
                 (A) (A) (A) (A) (A) (A) (A) (A) (A) (A) (A) (A)
                 (A) (A) (A) (A) (A) (A) (A) (A) (A) (A) (A) (A)
                 (A) (A) (A) (A) (A) (A) (A) (A) (A) (A) (A) (A)
                 (A) (A) (A) (A) (A) (A) (A) (A) (A) (A) (A) (A)
                 (A) (A) (A) (A) (A) (A) (A) (A) (A) (A) (A) (A)
                 (A) (A) (A) (A) (A) (A) (A) (A) (A) (A) (A) (A)
                 (A) (A) (A) (A) (A) (A) (A) (A) (A) (A) (A) (A)
                 (A) (A) (A) (A) (A) (A) (A) (A) (A) (A) (A) (A)
                 (A) (A) (A) (A) (A) (A) (A) (A) (A) (A) (A) (A)
                 (A) (A) (A) (A) (A) (A) (A) (A) (A) (A) (A) (A)
                 (A) (A) (A) (A) (A) (A) (A) (A) (A) (A) (A) (A)
                 (A) (A) (A) (A) (A) (A) (A) (A) (A) (A) (A) (A)
                 (A) (A) (A) (A) (A) (A) (A) (A) (A) (A) (A) (A)
                 (A) (A) (A) (A) (A) (A) (A) (A) (A) (A) (A) (A)
                 (A) (A) (A) (A) (A) (A) (A) (A) (A) (A) (A) (A)
                 (A) (A) (A) (A) (A) (A) (A) (A) (A) (A) (A) (A)
                 (A) (A) (A) (A) (A) (A) (A) (A) (A) (A) (A) (A)
                 (A) (A) (A) (A) (A) (A) (A) (A) (A) (A) (A) (A)
                 (A) (A) (A) (A) (A) (A) (A) (A) (A) (A) (A) (A)
                 (A) (A) (A) (A) (A) (A) (A) (A) (A) (A) (A) (A)
                 (A) (A) (A) (A) (A) (A) (A) (A) (A) (A) (A) (A)
                 (A) (A) (A) (A) (A) (A) (A) (A) (A) (A) (A) (A)
                 (A) (A) (A) (A) (A) (A) (A) (A) (A) (A) (A) (A)
                 (A) (A) (A) (A) (A) (A) (A) (A) (A) (A) (A) (A)
                 (A) (A) (A) (A) (A) (A) (A) (A) (A) (A) (A) (A)
                 (A) (A) (A) (A) (A) (A) (A) (A) (A) (A) (A) (A)
                 (A) (A) (A) (A) (A) (A) (A) (A) (A) (A) (A) (A)
                 (A) (A) (A) (A) (A) (A) (A) (A) (A) (A) (A) (A)
                 (A) (A) (A) (A) (A) (A) (A) (A) (A) (A) (A) (A)
                 (A) (A) (A) (A) (A) (A) (A) (A) (A) (A) (A) (A)
                 (A) (A) (A) (A) (A) (A) (A) (A) (A) (A) (A) (A)
                 (A) (A) (A) (A) (A) (A) (A) (A) (A) (A) (A) (A)
                 (A) (A) (A) (A) (A) (A) (A) (A) (A) (A) (A) (A)
                 (A) (A) (A) (A) (A) (A) (A) (A) (A) (A) (A) (A)
                 (A) (A) (A) (A) (A) (A) (A) (A) (A) (A) (A) (A)
                 (A) (A) (A) (A) (A) (A) (A) (A) (A) (A) (A) (A)
                 (A) (A) (A) (A) (A) (A) (A) (A) (A) (A) (A) (A)
                 (A) (A) (A) (A) (A) (A) (A) (A) (A) (A) (A) (A)
                 (A) (A) (A) (A) (A) (A) (A) (A) (A) (A) (A) (A)
                 (A) (A) (A) (A) (A) (A) (A) (A) (A) (A) (A) (A)
                 (A) (A) (A) (A) (A) (A) (A) (A) (A) (A) (A) (A)
                 (A) (A) (A) (A) (A) (A) (A) (A) (A) (A) (A) (A)
                 (A) (A) (A) (A) (A) (A) (A) (A) (A) (A) (A) (A)
                 (A) (A) (A) (A) (A) (A) (A) (A) (A) (A) (A) (A)
                 (A) (A) (A) (A) (A) (A) (A) (A) (A) (A) (A) (A)
                 (A) (A) (A) (A) (A) (A) (A) (A) (A) (A) (A) (A)
                 (A) (A) (A) (A) (A) (A) (A) (A) (A) (A) (A) (A)
                 (A) (A) (A) (A) (A) (A) (A) (A) (A) (A) (A) (A)
                 (A) (A) (A) (A) (A) (A) (A) (A) (A) (A) (A) (A)
                 (A) (A) (A) (A) (A) (A) (A) (A) (A) (A) (A) (A)
                 (A) (A) (A) (A) (A) (A) (A) (A) (A) (A) (A) (A)
                 (A) (A) (A) (A) (A) (A) (A) (A) (A) (A) (A) (A)
                 (A) (A) (A) (A) (A) (A) (A) (A) (A) (A) (A) (A)
                 (A) (A) (A) (A) (A) (A) (A) (A) (A) (A) (A) (A)
                 (A) (A) (A) (A) (A) (A) (A) (A) (A) (A) (A) (A)
                 (A) (A) (A) (A) (A) (A) (A) (A) (A) (A) (A) (A)
                 (A) (A) (A) (A) (A) (A) (A) (A) (A) (A) (A) (A)
                 (A) (A) (A) (A) (A) (A) (A) (A) (A) (A) (A) (A)
                 (A) (A) (A) (A) (A) (A) (A) (A) (A) (A) (A) (A)
                 (A) (A) (A) (A) (A) (A) (A) (A) (A) (A) (A) (A)
                 (A) (A) (A) (A) (A) (A) (A) (A) (A) (A) (A) (A)
                 (A) (A) (A) (A) (A) (A) (A) (A) (A) (A) (A) (A)
                 (A) (A) (A) (A) (A) (A) (A) (A) (A) (A) (A) (A)
                 (A) (A) (A) (A) (A) (A) (A) (A) (A) (A) (A) (A)
                 (A) (A) (A) (A) (A) (A) (A) (A) (A) (A) (A) (A)
                 (A) (A) (A) (A) (A) (A) (A) (A) (A) (A) (A) (A)
                 (A) (A) (A) (A) (A) (A) (A) (A) (A) (A) (A) (A)
                 (A) (A) (A) (A) (A) (A) (A) (A) (A) (A) (A) (A)
                 (A) (A) (A) (A) (A) (A) (A) (A) (A) (A) (A) (A)
                 (A) (A) (A) (A) (A) (A) (A) (A) (A) (A) (A) (A)
                 (A) (A) (A) (A) (A) (A) (A) (A) (A) (A) (A) (A)
                 (A) (A) (A)
 Beta  Orbitals:
       Occupied  (A) (A) (A) (A) (A) (A) (A) (A) (A) (A) (A) (A)
                 (A) (A) (A) (A) (A) (A) (A) (A) (A) (A) (A) (A)
                 (A) (A) (A) (A) (A) (A) (A) (A) (A) (A) (A) (A)
                 (A) (A) (A) (A) (A) (A) (A) (A) (A) (A) (A) (A)
                 (A) (A) (A) (A) (A) (A) (A) (A) (A) (A) (A) (A)
                 (A) (A) (A) (A) (A) (A) (A) (A) (A) (A) (A) (A)
                 (A) (A) (A) (A) (A) (A) (A) (A) (A) (A) (A) (A)
                 (A) (A) (A) (A) (A) (A) (A) (A) (A) (A) (A) (A)
                 (A) (A) (A) (A) (A) (A) (A) (A) (A) (A) (A) (A)
                 (A) (A) (A) (A) (A) (A) (A) (A) (A) (A) (A) (A)
                 (A) (A) (A) (A) (A) (A) (A) (A) (A) (A) (A) (A)
                 (A) (A) (A) (A) (A) (A) (A) (A) (A) (A) (A) (A)
                 (A) (A) (A) (A) (A) (A) (A) (A) (A) (A) (A) (A)
                 (A) (A) (A) (A) (A) (A) (A) (A) (A) (A) (A) (A)
                 (A) (A) (A) (A)
       Virtual   (A) (A) (A) (A) (A) (A) (A) (A) (A) (A) (A) (A)
                 (A) (A) (A) (A) (A) (A) (A) (A) (A) (A) (A) (A)
                 (A) (A) (A) (A) (A) (A) (A) (A) (A) (A) (A) (A)
                 (A) (A) (A) (A) (A) (A) (A) (A) (A) (A) (A) (A)
                 (A) (A) (A) (A) (A) (A) (A) (A) (A) (A) (A) (A)
                 (A) (A) (A) (A) (A) (A) (A) (A) (A) (A) (A) (A)
                 (A) (A) (A) (A) (A) (A) (A) (A) (A) (A) (A) (A)
                 (A) (A) (A) (A) (A) (A) (A) (A) (A) (A) (A) (A)
                 (A) (A) (A) (A) (A) (A) (A) (A) (A) (A) (A) (A)
                 (A) (A) (A) (A) (A) (A) (A) (A) (A) (A) (A) (A)
                 (A) (A) (A) (A) (A) (A) (A) (A) (A) (A) (A) (A)
                 (A) (A) (A) (A) (A) (A) (A) (A) (A) (A) (A) (A)
                 (A) (A) (A) (A) (A) (A) (A) (A) (A) (A) (A) (A)
                 (A) (A) (A) (A) (A) (A) (A) (A) (A) (A) (A) (A)
                 (A) (A) (A) (A) (A) (A) (A) (A) (A) (A) (A) (A)
                 (A) (A) (A) (A) (A) (A) (A) (A) (A) (A) (A) (A)
                 (A) (A) (A) (A) (A) (A) (A) (A) (A) (A) (A) (A)
                 (A) (A) (A) (A) (A) (A) (A) (A) (A) (A) (A) (A)
                 (A) (A) (A) (A) (A) (A) (A) (A) (A) (A) (A) (A)
                 (A) (A) (A) (A) (A) (A) (A) (A) (A) (A) (A) (A)
                 (A) (A) (A) (A) (A) (A) (A) (A) (A) (A) (A) (A)
                 (A) (A) (A) (A) (A) (A) (A) (A) (A) (A) (A) (A)
                 (A) (A) (A) (A) (A) (A) (A) (A) (A) (A) (A) (A)
                 (A) (A) (A) (A) (A) (A) (A) (A) (A) (A) (A) (A)
                 (A) (A) (A) (A) (A) (A) (A) (A) (A) (A) (A) (A)
                 (A) (A) (A) (A) (A) (A) (A) (A) (A) (A) (A) (A)
                 (A) (A) (A) (A) (A) (A) (A) (A) (A) (A) (A) (A)
                 (A) (A) (A) (A) (A) (A) (A) (A) (A) (A) (A) (A)
                 (A) (A) (A) (A) (A) (A) (A) (A) (A) (A) (A) (A)
                 (A) (A) (A) (A) (A) (A) (A) (A) (A) (A) (A) (A)
                 (A) (A) (A) (A) (A) (A) (A) (A) (A) (A) (A) (A)
                 (A) (A) (A) (A) (A) (A) (A) (A) (A) (A) (A) (A)
                 (A) (A) (A) (A) (A) (A) (A) (A) (A) (A) (A) (A)
                 (A) (A) (A) (A) (A) (A) (A) (A) (A) (A) (A) (A)
                 (A) (A) (A) (A) (A) (A) (A) (A) (A) (A) (A) (A)
                 (A) (A) (A) (A) (A) (A) (A) (A) (A) (A) (A) (A)
                 (A) (A) (A) (A) (A) (A) (A) (A) (A) (A) (A) (A)
                 (A) (A) (A) (A) (A) (A) (A) (A) (A) (A) (A) (A)
                 (A) (A) (A) (A) (A) (A) (A) (A) (A) (A) (A) (A)
                 (A) (A) (A) (A) (A) (A) (A) (A) (A) (A) (A) (A)
                 (A) (A) (A) (A) (A) (A) (A) (A) (A) (A) (A) (A)
                 (A) (A) (A) (A) (A) (A) (A) (A) (A) (A) (A) (A)
                 (A) (A) (A) (A) (A) (A) (A) (A) (A) (A) (A) (A)
                 (A) (A) (A) (A) (A) (A) (A) (A) (A) (A) (A) (A)
                 (A) (A) (A) (A) (A) (A) (A) (A) (A) (A) (A) (A)
                 (A) (A) (A) (A) (A) (A) (A) (A) (A) (A) (A) (A)
                 (A) (A) (A) (A) (A) (A) (A) (A) (A) (A) (A) (A)
                 (A) (A) (A) (A) (A) (A) (A) (A) (A) (A) (A) (A)
                 (A) (A) (A) (A) (A) (A) (A) (A) (A) (A) (A) (A)
                 (A) (A) (A) (A) (A) (A) (A) (A) (A) (A) (A) (A)
                 (A) (A) (A) (A) (A) (A) (A) (A) (A) (A) (A) (A)
                 (A) (A) (A) (A) (A) (A) (A) (A) (A) (A) (A) (A)
                 (A) (A) (A) (A) (A) (A) (A) (A) (A) (A) (A) (A)
                 (A) (A) (A) (A) (A) (A) (A) (A) (A) (A) (A) (A)
                 (A) (A) (A) (A) (A) (A) (A) (A) (A) (A) (A) (A)
                 (A) (A) (A) (A) (A) (A) (A) (A) (A) (A) (A) (A)
                 (A) (A) (A) (A) (A) (A) (A) (A) (A) (A) (A) (A)
                 (A) (A) (A) (A) (A) (A) (A) (A) (A) (A) (A) (A)
                 (A) (A) (A) (A) (A) (A) (A) (A) (A) (A) (A) (A)
                 (A) (A) (A) (A) (A) (A) (A) (A) (A) (A) (A) (A)
                 (A) (A) (A) (A) (A) (A) (A) (A) (A) (A) (A) (A)
                 (A) (A) (A) (A) (A) (A) (A) (A) (A) (A) (A) (A)
                 (A) (A) (A) (A) (A) (A) (A) (A) (A) (A) (A) (A)
                 (A) (A) (A) (A) (A) (A) (A) (A) (A) (A) (A) (A)
                 (A) (A) (A) (A) (A) (A) (A) (A) (A) (A) (A) (A)
                 (A) (A) (A) (A) (A) (A) (A) (A) (A) (A) (A) (A)
                 (A) (A) (A) (A) (A) (A) (A) (A) (A) (A) (A) (A)
                 (A) (A) (A) (A) (A) (A) (A) (A) (A) (A) (A) (A)
                 (A) (A) (A) (A) (A) (A) (A) (A) (A) (A) (A) (A)
                 (A) (A) (A) (A) (A) (A) (A) (A) (A) (A) (A) (A)
                 (A) (A) (A) (A) (A) (A) (A) (A) (A) (A) (A) (A)
                 (A) (A) (A) (A) (A) (A) (A) (A) (A) (A) (A) (A)
                 (A) (A) (A) (A) (A) (A) (A) (A) (A) (A) (A) (A)
                 (A) (A) (A) (A) (A) (A) (A) (A) (A) (A) (A) (A)
                 (A) (A) (A) (A) (A) (A) (A) (A) (A) (A) (A) (A)
                 (A) (A) (A) (A) (A) (A) (A) (A) (A) (A) (A) (A)
                 (A) (A) (A) (A) (A) (A) (A) (A) (A) (A) (A) (A)
                 (A) (A) (A) (A) (A) (A) (A) (A) (A) (A) (A) (A)
                 (A) (A) (A) (A) (A) (A) (A) (A) (A) (A) (A) (A)
                 (A) (A) (A) (A) (A) (A) (A) (A) (A) (A) (A) (A)
                 (A) (A) (A) (A) (A) (A) (A) (A) (A) (A) (A) (A)
                 (A) (A) (A) (A) (A) (A) (A) (A) (A) (A) (A) (A)
                 (A) (A) (A) (A) (A) (A) (A) (A) (A) (A) (A) (A)
                 (A) (A) (A) (A) (A) (A) (A) (A) (A) (A) (A) (A)
                 (A) (A) (A) (A) (A) (A) (A) (A) (A) (A) (A) (A)
                 (A) (A) (A) (A) (A) (A) (A) (A) (A) (A) (A) (A)
                 (A) (A) (A) (A) (A) (A) (A) (A) (A) (A) (A) (A)
                 (A) (A) (A) (A) (A) (A) (A) (A) (A) (A) (A) (A)
                 (A) (A) (A) (A) (A) (A) (A) (A) (A) (A) (A) (A)
                 (A) (A) (A) (A) (A) (A) (A) (A) (A) (A) (A) (A)
                 (A) (A) (A) (A) (A) (A) (A) (A) (A) (A) (A) (A)
                 (A) (A) (A) (A) (A) (A) (A) (A) (A) (A) (A) (A)
                 (A) (A) (A) (A) (A) (A) (A) (A) (A) (A) (A) (A)
                 (A) (A) (A) (A) (A) (A) (A) (A) (A) (A) (A) (A)
                 (A) (A) (A) (A) (A) (A) (A) (A) (A) (A) (A) (A)
                 (A) (A) (A) (A) (A) (A) (A) (A) (A) (A) (A) (A)
                 (A) (A) (A) (A) (A) (A) (A) (A) (A) (A) (A) (A)
                 (A) (A) (A) (A) (A) (A) (A) (A) (A) (A) (A) (A)
                 (A) (A) (A) (A) (A) (A) (A) (A) (A) (A) (A) (A)
                 (A) (A) (A) (A) (A) (A) (A) (A) (A) (A) (A) (A)
                 (A) (A) (A) (A) (A) (A) (A) (A) (A) (A) (A) (A)
                 (A) (A) (A) (A) (A) (A) (A) (A) (A) (A) (A) (A)
                 (A) (A) (A) (A) (A) (A) (A) (A) (A) (A) (A) (A)
                 (A) (A) (A) (A) (A) (A) (A) (A) (A) (A) (A) (A)
                 (A) (A) (A) (A) (A) (A) (A) (A) (A) (A) (A) (A)
                 (A) (A) (A) (A) (A) (A) (A) (A) (A) (A) (A) (A)
                 (A) (A) (A) (A) (A) (A) (A) (A) (A) (A) (A) (A)
                 (A) (A) (A) (A) (A) (A) (A) (A) (A) (A) (A) (A)
                 (A) (A) (A) (A) (A) (A) (A) (A) (A) (A) (A) (A)
                 (A) (A) (A) (A) (A) (A) (A) (A) (A) (A) (A) (A)
                 (A) (A) (A) (A) (A) (A) (A) (A) (A) (A) (A) (A)
                 (A) (A) (A) (A) (A) (A) (A) (A) (A) (A) (A) (A)
                 (A) (A) (A) (A) (A) (A) (A) (A) (A) (A) (A) (A)
                 (A) (A) (A) (A) (A) (A) (A) (A) (A) (A) (A) (A)
                 (A) (A) (A) (A) (A) (A) (A) (A) (A) (A) (A) (A)
                 (A) (A) (A) (A) (A) (A) (A) (A) (A) (A) (A) (A)
                 (A) (A) (A) (A) (A) (A) (A) (A) (A) (A) (A) (A)
                 (A) (A) (A) (A) (A) (A) (A) (A) (A) (A) (A) (A)
                 (A) (A) (A) (A) (A) (A) (A) (A) (A) (A) (A) (A)
                 (A) (A) (A) (A) (A) (A) (A) (A) (A) (A) (A) (A)
                 (A) (A) (A) (A) (A) (A) (A) (A) (A) (A) (A) (A)
                 (A) (A) (A) (A) (A) (A) (A)
 The electronic state is 5-A.
 Alpha  occ. eigenvalues -- -256.33531 -89.02489 -30.14653 -25.97842 -25.96054
 Alpha  occ. eigenvalues --  -25.95617 -19.27844 -19.25529 -19.18030 -19.17692
 Alpha  occ. eigenvalues --  -14.37480 -14.37427 -14.37334 -14.36684 -10.35895
 Alpha  occ. eigenvalues --  -10.35129 -10.25311 -10.25031 -10.24870 -10.24808
 Alpha  occ. eigenvalues --  -10.24767 -10.24751 -10.24636 -10.24607 -10.24464
 Alpha  occ. eigenvalues --  -10.23786 -10.23026 -10.22927 -10.22704 -10.22544
 Alpha  occ. eigenvalues --  -10.22445 -10.22443 -10.22424 -10.22348 -10.22114
 Alpha  occ. eigenvalues --  -10.22044 -10.21981 -10.21938 -10.21935 -10.21901
 Alpha  occ. eigenvalues --  -10.21737 -10.21524 -10.21487 -10.21340 -10.21268
 Alpha  occ. eigenvalues --  -10.21259 -10.21227 -10.21132 -10.21083  -8.00780
 Alpha  occ. eigenvalues --   -5.94409  -5.94095  -5.93603  -3.57366  -2.36593
 Alpha  occ. eigenvalues --   -2.32458  -2.31876  -1.18547  -1.16424  -1.02984
 Alpha  occ. eigenvalues --   -1.02399  -0.98626  -0.97578  -0.97295  -0.96274
 Alpha  occ. eigenvalues --   -0.85194  -0.85060  -0.84884  -0.83897  -0.83260
 Alpha  occ. eigenvalues --   -0.82223  -0.81844  -0.81055  -0.80330  -0.79038
 Alpha  occ. eigenvalues --   -0.78092  -0.77227  -0.75985  -0.74586  -0.73268
 Alpha  occ. eigenvalues --   -0.72766  -0.72137  -0.70913  -0.70162  -0.69581
 Alpha  occ. eigenvalues --   -0.68852  -0.67194  -0.66084  -0.65546  -0.64629
 Alpha  occ. eigenvalues --   -0.63015  -0.62266  -0.59641  -0.58100  -0.56152
 Alpha  occ. eigenvalues --   -0.56064  -0.55218  -0.54509  -0.53020  -0.52974
 Alpha  occ. eigenvalues --   -0.52591  -0.52206  -0.51715  -0.51695  -0.50970
 Alpha  occ. eigenvalues --   -0.50589  -0.50392  -0.49584  -0.49264  -0.49032
 Alpha  occ. eigenvalues --   -0.48729  -0.47437  -0.47292  -0.46385  -0.45899
 Alpha  occ. eigenvalues --   -0.45811  -0.45619  -0.45443  -0.45034  -0.44978
 Alpha  occ. eigenvalues --   -0.44546  -0.44254  -0.44006  -0.43965  -0.43599
 Alpha  occ. eigenvalues --   -0.43418  -0.43153  -0.42700  -0.42317  -0.42041
 Alpha  occ. eigenvalues --   -0.41781  -0.41474  -0.41164  -0.40939  -0.40495
 Alpha  occ. eigenvalues --   -0.40173  -0.40120  -0.39880  -0.39681  -0.39411
 Alpha  occ. eigenvalues --   -0.39280  -0.38780  -0.38498  -0.38275  -0.38103
 Alpha  occ. eigenvalues --   -0.38017  -0.37650  -0.37205  -0.36720  -0.36000
 Alpha  occ. eigenvalues --   -0.35566  -0.35350  -0.34821  -0.34623  -0.33536
 Alpha  occ. eigenvalues --   -0.33248  -0.32982  -0.32795  -0.32752  -0.32389
 Alpha  occ. eigenvalues --   -0.31547  -0.31081  -0.28827  -0.28431  -0.27870
 Alpha  occ. eigenvalues --   -0.27689  -0.27300  -0.26460  -0.25345  -0.24106
 Alpha  occ. eigenvalues --   -0.23189  -0.22960  -0.22199  -0.19523  -0.18767
 Alpha  occ. eigenvalues --   -0.17070
 Alpha virt. eigenvalues --   -0.07678  -0.07095  -0.02493  -0.00962  -0.00363
 Alpha virt. eigenvalues --    0.00101   0.00935   0.01098   0.02150   0.03153
 Alpha virt. eigenvalues --    0.03618   0.04396   0.04443   0.04694   0.05250
 Alpha virt. eigenvalues --    0.05382   0.05897   0.06470   0.06921   0.07440
 Alpha virt. eigenvalues --    0.07553   0.07806   0.08363   0.09075   0.09342
 Alpha virt. eigenvalues --    0.09529   0.09824   0.09906   0.10199   0.10642
 Alpha virt. eigenvalues --    0.10972   0.11318   0.11595   0.11766   0.12015
 Alpha virt. eigenvalues --    0.12246   0.12339   0.12474   0.12647   0.13056
 Alpha virt. eigenvalues --    0.13427   0.13638   0.13756   0.14072   0.14375
 Alpha virt. eigenvalues --    0.14797   0.15020   0.15117   0.15320   0.15462
 Alpha virt. eigenvalues --    0.15665   0.15901   0.16086   0.16205   0.16458
 Alpha virt. eigenvalues --    0.16559   0.17022   0.17182   0.17674   0.17726
 Alpha virt. eigenvalues --    0.18059   0.18528   0.18717   0.18859   0.19186
 Alpha virt. eigenvalues --    0.19581   0.19606   0.19799   0.20091   0.20273
 Alpha virt. eigenvalues --    0.20423   0.20690   0.20876   0.21023   0.21212
 Alpha virt. eigenvalues --    0.21474   0.21778   0.22128   0.22444   0.22749
 Alpha virt. eigenvalues --    0.22982   0.23047   0.23327   0.23664   0.23736
 Alpha virt. eigenvalues --    0.24136   0.24628   0.24717   0.24831   0.25117
 Alpha virt. eigenvalues --    0.25505   0.25638   0.25854   0.26341   0.26395
 Alpha virt. eigenvalues --    0.26710   0.26749   0.27283   0.27697   0.28004
 Alpha virt. eigenvalues --    0.28233   0.28416   0.28628   0.28672   0.29029
 Alpha virt. eigenvalues --    0.29192   0.29597   0.29901   0.29962   0.30234
 Alpha virt. eigenvalues --    0.30501   0.30582   0.31282   0.31617   0.31690
 Alpha virt. eigenvalues --    0.31914   0.32225   0.32315   0.32663   0.32895
 Alpha virt. eigenvalues --    0.33251   0.33440   0.33634   0.33986   0.34089
 Alpha virt. eigenvalues --    0.34603   0.34812   0.34955   0.35289   0.35359
 Alpha virt. eigenvalues --    0.35462   0.36002   0.36472   0.36702   0.37146
 Alpha virt. eigenvalues --    0.37264   0.37711   0.37943   0.38170   0.38374
 Alpha virt. eigenvalues --    0.38453   0.38515   0.38870   0.39069   0.39122
 Alpha virt. eigenvalues --    0.39555   0.39832   0.40021   0.40385   0.40753
 Alpha virt. eigenvalues --    0.40991   0.41258   0.41469   0.41533   0.41715
 Alpha virt. eigenvalues --    0.41883   0.42146   0.42406   0.42522   0.42769
 Alpha virt. eigenvalues --    0.42932   0.43286   0.43366   0.43558   0.43737
 Alpha virt. eigenvalues --    0.44017   0.44104   0.44316   0.44521   0.44683
 Alpha virt. eigenvalues --    0.44827   0.45016   0.45251   0.45373   0.45670
 Alpha virt. eigenvalues --    0.46019   0.46043   0.46057   0.46351   0.46625
 Alpha virt. eigenvalues --    0.46766   0.46964   0.47210   0.47461   0.47510
 Alpha virt. eigenvalues --    0.47798   0.48057   0.48219   0.48506   0.48576
 Alpha virt. eigenvalues --    0.48843   0.49092   0.49188   0.49416   0.49656
 Alpha virt. eigenvalues --    0.49756   0.49987   0.50372   0.50526   0.50691
 Alpha virt. eigenvalues --    0.50809   0.50892   0.51121   0.51457   0.51610
 Alpha virt. eigenvalues --    0.52017   0.52165   0.52416   0.52716   0.52956
 Alpha virt. eigenvalues --    0.53130   0.53267   0.53649   0.54171   0.54361
 Alpha virt. eigenvalues --    0.54501   0.54705   0.54767   0.55093   0.55320
 Alpha virt. eigenvalues --    0.55741   0.56008   0.56047   0.56311   0.56670
 Alpha virt. eigenvalues --    0.56999   0.57398   0.57474   0.57867   0.58071
 Alpha virt. eigenvalues --    0.58342   0.58707   0.59062   0.59099   0.59273
 Alpha virt. eigenvalues --    0.59822   0.60119   0.60383   0.60715   0.60883
 Alpha virt. eigenvalues --    0.61102   0.61611   0.61790   0.62033   0.62326
 Alpha virt. eigenvalues --    0.62750   0.62797   0.63152   0.63593   0.63768
 Alpha virt. eigenvalues --    0.64035   0.64454   0.65012   0.65272   0.65389
 Alpha virt. eigenvalues --    0.65529   0.65814   0.66128   0.66335   0.66897
 Alpha virt. eigenvalues --    0.67020   0.67216   0.67509   0.67852   0.67994
 Alpha virt. eigenvalues --    0.68320   0.68545   0.68596   0.69205   0.69405
 Alpha virt. eigenvalues --    0.69480   0.69797   0.70288   0.70719   0.70799
 Alpha virt. eigenvalues --    0.71323   0.71580   0.71809   0.71972   0.72331
 Alpha virt. eigenvalues --    0.72651   0.72915   0.73080   0.73350   0.73827
 Alpha virt. eigenvalues --    0.74200   0.74307   0.74805   0.74957   0.75315
 Alpha virt. eigenvalues --    0.75404   0.75582   0.76181   0.76441   0.76733
 Alpha virt. eigenvalues --    0.76797   0.77212   0.77516   0.77738   0.78080
 Alpha virt. eigenvalues --    0.78355   0.78666   0.79313   0.79659   0.79708
 Alpha virt. eigenvalues --    0.79983   0.80098   0.80815   0.81200   0.81286
 Alpha virt. eigenvalues --    0.81805   0.82065   0.82237   0.82858   0.83236
 Alpha virt. eigenvalues --    0.83582   0.83880   0.84556   0.84951   0.85112
 Alpha virt. eigenvalues --    0.85784   0.85969   0.86220   0.86412   0.86895
 Alpha virt. eigenvalues --    0.87391   0.87641   0.87887   0.88171   0.88326
 Alpha virt. eigenvalues --    0.89083   0.89292   0.89691   0.90023   0.90183
 Alpha virt. eigenvalues --    0.90562   0.90971   0.91410   0.91745   0.91979
 Alpha virt. eigenvalues --    0.92376   0.92786   0.93342   0.93357   0.93439
 Alpha virt. eigenvalues --    0.93774   0.94326   0.94540   0.94733   0.94948
 Alpha virt. eigenvalues --    0.95169   0.95418   0.95598   0.95715   0.95975
 Alpha virt. eigenvalues --    0.96250   0.96851   0.97163   0.97308   0.98367
 Alpha virt. eigenvalues --    0.98493   0.98838   0.99143   0.99463   0.99650
 Alpha virt. eigenvalues --    0.99859   1.00017   1.00425   1.01036   1.01826
 Alpha virt. eigenvalues --    1.01967   1.02339   1.02427   1.03124   1.03327
 Alpha virt. eigenvalues --    1.03454   1.03663   1.04223   1.04611   1.04702
 Alpha virt. eigenvalues --    1.05250   1.05519   1.06025   1.06193   1.06475
 Alpha virt. eigenvalues --    1.06744   1.07195   1.07703   1.08337   1.08395
 Alpha virt. eigenvalues --    1.08858   1.09266   1.09404   1.09905   1.10140
 Alpha virt. eigenvalues --    1.10288   1.10753   1.10898   1.11206   1.11973
 Alpha virt. eigenvalues --    1.12174   1.13038   1.13536   1.13923   1.14129
 Alpha virt. eigenvalues --    1.14790   1.14847   1.15442   1.15691   1.16535
 Alpha virt. eigenvalues --    1.16970   1.17455   1.17646   1.17905   1.18306
 Alpha virt. eigenvalues --    1.18439   1.18865   1.19181   1.19653   1.20183
 Alpha virt. eigenvalues --    1.20475   1.21291   1.21750   1.22050   1.22928
 Alpha virt. eigenvalues --    1.23286   1.23600   1.23965   1.24448   1.24596
 Alpha virt. eigenvalues --    1.24808   1.25629   1.26011   1.26409   1.26637
 Alpha virt. eigenvalues --    1.27408   1.27816   1.28574   1.28831   1.29014
 Alpha virt. eigenvalues --    1.29710   1.30011   1.30473   1.30714   1.31222
 Alpha virt. eigenvalues --    1.31997   1.32175   1.32596   1.32805   1.33603
 Alpha virt. eigenvalues --    1.33858   1.34142   1.34371   1.35059   1.35166
 Alpha virt. eigenvalues --    1.35451   1.35965   1.36602   1.36851   1.37069
 Alpha virt. eigenvalues --    1.37202   1.38098   1.38564   1.39359   1.40028
 Alpha virt. eigenvalues --    1.40294   1.40764   1.41202   1.41699   1.42852
 Alpha virt. eigenvalues --    1.42988   1.43687   1.43977   1.44132   1.44329
 Alpha virt. eigenvalues --    1.45009   1.45224   1.45480   1.46145   1.46504
 Alpha virt. eigenvalues --    1.47066   1.47352   1.47546   1.47741   1.47897
 Alpha virt. eigenvalues --    1.48532   1.48692   1.49134   1.49370   1.49931
 Alpha virt. eigenvalues --    1.50060   1.50555   1.51162   1.51378   1.51570
 Alpha virt. eigenvalues --    1.51823   1.52327   1.52759   1.52938   1.53051
 Alpha virt. eigenvalues --    1.53947   1.54115   1.54539   1.55068   1.55273
 Alpha virt. eigenvalues --    1.55327   1.55626   1.55868   1.56225   1.56365
 Alpha virt. eigenvalues --    1.56450   1.57003   1.57164   1.57347   1.57821
 Alpha virt. eigenvalues --    1.58031   1.58181   1.58414   1.58814   1.59036
 Alpha virt. eigenvalues --    1.59287   1.59472   1.60130   1.60372   1.60969
 Alpha virt. eigenvalues --    1.61406   1.61680   1.61812   1.62048   1.62404
 Alpha virt. eigenvalues --    1.62789   1.62929   1.62986   1.63199   1.63651
 Alpha virt. eigenvalues --    1.63826   1.64151   1.64449   1.64893   1.65336
 Alpha virt. eigenvalues --    1.65473   1.65591   1.66713   1.66999   1.67100
 Alpha virt. eigenvalues --    1.67257   1.67496   1.67721   1.68296   1.68472
 Alpha virt. eigenvalues --    1.68795   1.68876   1.69631   1.69823   1.70161
 Alpha virt. eigenvalues --    1.70349   1.70594   1.71011   1.71225   1.71505
 Alpha virt. eigenvalues --    1.71984   1.72499   1.72676   1.72863   1.73334
 Alpha virt. eigenvalues --    1.73738   1.74231   1.74433   1.74631   1.75411
 Alpha virt. eigenvalues --    1.75689   1.75854   1.76597   1.77397   1.77662
 Alpha virt. eigenvalues --    1.78258   1.78446   1.79046   1.79366   1.79647
 Alpha virt. eigenvalues --    1.80260   1.80586   1.80796   1.82049   1.82225
 Alpha virt. eigenvalues --    1.82419   1.82755   1.83013   1.83366   1.83813
 Alpha virt. eigenvalues --    1.84003   1.84303   1.85293   1.85413   1.85581
 Alpha virt. eigenvalues --    1.86249   1.86614   1.86758   1.86796   1.87799
 Alpha virt. eigenvalues --    1.88421   1.88774   1.88915   1.89402   1.89930
 Alpha virt. eigenvalues --    1.90129   1.90771   1.90880   1.91550   1.91969
 Alpha virt. eigenvalues --    1.92439   1.92654   1.92830   1.92872   1.93807
 Alpha virt. eigenvalues --    1.94236   1.94298   1.95115   1.95481   1.95695
 Alpha virt. eigenvalues --    1.96045   1.96589   1.97063   1.97200   1.97441
 Alpha virt. eigenvalues --    1.98074   1.98208   1.98456   1.99303   1.99510
 Alpha virt. eigenvalues --    2.00192   2.00535   2.00925   2.01234   2.01463
 Alpha virt. eigenvalues --    2.01701   2.02338   2.02746   2.02972   2.03187
 Alpha virt. eigenvalues --    2.03649   2.04035   2.04193   2.04397   2.05332
 Alpha virt. eigenvalues --    2.05945   2.06206   2.06960   2.07389   2.07870
 Alpha virt. eigenvalues --    2.08149   2.08899   2.09474   2.09708   2.10103
 Alpha virt. eigenvalues --    2.10578   2.11061   2.11401   2.12351   2.12576
 Alpha virt. eigenvalues --    2.12645   2.12989   2.13698   2.14198   2.14565
 Alpha virt. eigenvalues --    2.14977   2.15098   2.15696   2.15890   2.16183
 Alpha virt. eigenvalues --    2.16651   2.17331   2.17441   2.17507   2.18307
 Alpha virt. eigenvalues --    2.18960   2.19761   2.20081   2.20150   2.20591
 Alpha virt. eigenvalues --    2.20709   2.21388   2.22374   2.22468   2.22862
 Alpha virt. eigenvalues --    2.23655   2.23876   2.24529   2.24696   2.25347
 Alpha virt. eigenvalues --    2.25497   2.26016   2.26373   2.27129   2.27742
 Alpha virt. eigenvalues --    2.28017   2.28599   2.28727   2.28825   2.29404
 Alpha virt. eigenvalues --    2.29507   2.29634   2.30162   2.30373   2.30819
 Alpha virt. eigenvalues --    2.31892   2.32410   2.32696   2.32993   2.33449
 Alpha virt. eigenvalues --    2.33591   2.34092   2.34322   2.34856   2.35367
 Alpha virt. eigenvalues --    2.35756   2.36170   2.36432   2.36885   2.37434
 Alpha virt. eigenvalues --    2.37597   2.37935   2.38279   2.38873   2.38932
 Alpha virt. eigenvalues --    2.39411   2.40390   2.40611   2.40970   2.41182
 Alpha virt. eigenvalues --    2.41855   2.42280   2.42664   2.42793   2.43101
 Alpha virt. eigenvalues --    2.43654   2.44469   2.45101   2.45586   2.45709
 Alpha virt. eigenvalues --    2.45820   2.46449   2.46611   2.46656   2.47530
 Alpha virt. eigenvalues --    2.48611   2.49421   2.49836   2.50261   2.50724
 Alpha virt. eigenvalues --    2.51159   2.51473   2.51716   2.52687   2.53301
 Alpha virt. eigenvalues --    2.53899   2.54357   2.54496   2.54819   2.55323
 Alpha virt. eigenvalues --    2.55879   2.56645   2.56863   2.57127   2.57376
 Alpha virt. eigenvalues --    2.57926   2.58525   2.58905   2.59225   2.59499
 Alpha virt. eigenvalues --    2.60026   2.60276   2.60488   2.60723   2.61038
 Alpha virt. eigenvalues --    2.61330   2.61628   2.61903   2.62363   2.62464
 Alpha virt. eigenvalues --    2.62701   2.63302   2.63886   2.64554   2.64917
 Alpha virt. eigenvalues --    2.64990   2.65468   2.65796   2.65995   2.66208
 Alpha virt. eigenvalues --    2.66867   2.67100   2.67297   2.68080   2.68284
 Alpha virt. eigenvalues --    2.68503   2.68801   2.69173   2.69409   2.69859
 Alpha virt. eigenvalues --    2.70203   2.70616   2.71001   2.71446   2.71694
 Alpha virt. eigenvalues --    2.71901   2.72469   2.72496   2.73079   2.73639
 Alpha virt. eigenvalues --    2.73930   2.74015   2.74810   2.75211   2.75781
 Alpha virt. eigenvalues --    2.75944   2.76805   2.76997   2.77244   2.77705
 Alpha virt. eigenvalues --    2.78032   2.78724   2.79146   2.79248   2.79695
 Alpha virt. eigenvalues --    2.80281   2.80548   2.80965   2.81652   2.81971
 Alpha virt. eigenvalues --    2.82118   2.82881   2.83374   2.83779   2.83995
 Alpha virt. eigenvalues --    2.84499   2.84568   2.84933   2.85369   2.85629
 Alpha virt. eigenvalues --    2.86020   2.86130   2.86740   2.87401   2.87773
 Alpha virt. eigenvalues --    2.88224   2.88452   2.88744   2.89265   2.89321
 Alpha virt. eigenvalues --    2.90100   2.90389   2.90762   2.91082   2.91711
 Alpha virt. eigenvalues --    2.91985   2.92458   2.92766   2.93198   2.93649
 Alpha virt. eigenvalues --    2.93753   2.93885   2.94247   2.94359   2.95392
 Alpha virt. eigenvalues --    2.95744   2.96135   2.96406   2.96857   2.97433
 Alpha virt. eigenvalues --    2.97736   2.98130   2.98557   2.98911   2.99089
 Alpha virt. eigenvalues --    2.99464   2.99581   2.99902   3.00252   3.00781
 Alpha virt. eigenvalues --    3.01092   3.01750   3.01885   3.02428   3.02574
 Alpha virt. eigenvalues --    3.03019   3.03432   3.03974   3.04070   3.04322
 Alpha virt. eigenvalues --    3.04644   3.05006   3.05516   3.06004   3.06246
 Alpha virt. eigenvalues --    3.06636   3.06867   3.07402   3.07816   3.07971
 Alpha virt. eigenvalues --    3.08036   3.09013   3.09332   3.09721   3.09829
 Alpha virt. eigenvalues --    3.10585   3.10762   3.11020   3.11200   3.11412
 Alpha virt. eigenvalues --    3.11859   3.12321   3.12474   3.12779   3.13348
 Alpha virt. eigenvalues --    3.13768   3.13845   3.14280   3.14318   3.14684
 Alpha virt. eigenvalues --    3.15012   3.15413   3.16004   3.16047   3.16181
 Alpha virt. eigenvalues --    3.16583   3.17040   3.17309   3.17542   3.17980
 Alpha virt. eigenvalues --    3.18166   3.18571   3.18653   3.19041   3.19307
 Alpha virt. eigenvalues --    3.19795   3.20201   3.20339   3.20395   3.20470
 Alpha virt. eigenvalues --    3.20788   3.21329   3.21542   3.22123   3.22405
 Alpha virt. eigenvalues --    3.22791   3.23133   3.23309   3.23540   3.23869
 Alpha virt. eigenvalues --    3.24297   3.24778   3.25070   3.25274   3.25380
 Alpha virt. eigenvalues --    3.25912   3.26170   3.26548   3.26928   3.27049
 Alpha virt. eigenvalues --    3.27555   3.27871   3.28237   3.28422   3.28787
 Alpha virt. eigenvalues --    3.29087   3.29373   3.29573   3.29801   3.30233
 Alpha virt. eigenvalues --    3.30424   3.30638   3.31243   3.31575   3.31906
 Alpha virt. eigenvalues --    3.32104   3.32552   3.32791   3.32934   3.33256
 Alpha virt. eigenvalues --    3.33556   3.33876   3.34373   3.34543   3.34769
 Alpha virt. eigenvalues --    3.35307   3.35482   3.35785   3.36107   3.36337
 Alpha virt. eigenvalues --    3.36629   3.36709   3.36964   3.37120   3.37389
 Alpha virt. eigenvalues --    3.37800   3.38089   3.38550   3.38666   3.38982
 Alpha virt. eigenvalues --    3.39098   3.39489   3.39983   3.40224   3.40464
 Alpha virt. eigenvalues --    3.40560   3.40768   3.41191   3.41414   3.41747
 Alpha virt. eigenvalues --    3.42160   3.42263   3.42711   3.42899   3.43244
 Alpha virt. eigenvalues --    3.43644   3.44279   3.44396   3.44456   3.44806
 Alpha virt. eigenvalues --    3.44989   3.45298   3.45427   3.46142   3.46325
 Alpha virt. eigenvalues --    3.46822   3.47072   3.47162   3.48214   3.48318
 Alpha virt. eigenvalues --    3.48690   3.48982   3.49189   3.49607   3.50220
 Alpha virt. eigenvalues --    3.50675   3.51141   3.51833   3.51964   3.52367
 Alpha virt. eigenvalues --    3.52479   3.52607   3.53372   3.53850   3.54020
 Alpha virt. eigenvalues --    3.54431   3.54992   3.55528   3.56068   3.56519
 Alpha virt. eigenvalues --    3.56830   3.57318   3.57445   3.57808   3.58447
 Alpha virt. eigenvalues --    3.58587   3.59147   3.59562   3.59961   3.60848
 Alpha virt. eigenvalues --    3.61304   3.61796   3.62135   3.62402   3.62692
 Alpha virt. eigenvalues --    3.63021   3.63239   3.63920   3.64230   3.64408
 Alpha virt. eigenvalues --    3.65516   3.65959   3.66126   3.66837   3.67003
 Alpha virt. eigenvalues --    3.67351   3.67411   3.68281   3.68485   3.68881
 Alpha virt. eigenvalues --    3.69988   3.70755   3.70998   3.71413   3.71429
 Alpha virt. eigenvalues --    3.71683   3.72468   3.72942   3.73323   3.74102
 Alpha virt. eigenvalues --    3.74381   3.74970   3.75370   3.75650   3.76229
 Alpha virt. eigenvalues --    3.76401   3.76922   3.77647   3.77958   3.78344
 Alpha virt. eigenvalues --    3.78765   3.78939   3.79741   3.80243   3.80593
 Alpha virt. eigenvalues --    3.81693   3.81894   3.82237   3.82801   3.83207
 Alpha virt. eigenvalues --    3.83906   3.84261   3.84704   3.84987   3.85373
 Alpha virt. eigenvalues --    3.86484   3.86994   3.87563   3.88348   3.88688
 Alpha virt. eigenvalues --    3.89266   3.89563   3.90065   3.90731   3.91744
 Alpha virt. eigenvalues --    3.92558   3.92801   3.93296   3.93959   3.94792
 Alpha virt. eigenvalues --    3.95474   3.95952   3.96073   3.96838   3.97310
 Alpha virt. eigenvalues --    3.97829   3.98301   3.99425   3.99633   4.00637
 Alpha virt. eigenvalues --    4.01107   4.01566   4.02074   4.02393   4.02900
 Alpha virt. eigenvalues --    4.03252   4.03965   4.04441   4.05092   4.05946
 Alpha virt. eigenvalues --    4.06441   4.07489   4.07916   4.09001   4.09814
 Alpha virt. eigenvalues --    4.09932   4.10674   4.11437   4.11630   4.12160
 Alpha virt. eigenvalues --    4.13309   4.13695   4.13765   4.14254   4.14551
 Alpha virt. eigenvalues --    4.14894   4.16142   4.16812   4.17339   4.17853
 Alpha virt. eigenvalues --    4.18601   4.19090   4.19202   4.20035   4.20196
 Alpha virt. eigenvalues --    4.20759   4.21494   4.22153   4.22286   4.22879
 Alpha virt. eigenvalues --    4.23169   4.24200   4.24655   4.25014   4.25837
 Alpha virt. eigenvalues --    4.26624   4.27510   4.27731   4.28243   4.28520
 Alpha virt. eigenvalues --    4.29134   4.30261   4.30581   4.30792   4.31159
 Alpha virt. eigenvalues --    4.31828   4.32382   4.33217   4.33396   4.33875
 Alpha virt. eigenvalues --    4.34842   4.35465   4.36043   4.36301   4.36765
 Alpha virt. eigenvalues --    4.37761   4.38319   4.38955   4.39591   4.39824
 Alpha virt. eigenvalues --    4.40492   4.40632   4.41480   4.42064   4.42872
 Alpha virt. eigenvalues --    4.43707   4.44027   4.45241   4.45285   4.46217
 Alpha virt. eigenvalues --    4.46563   4.46910   4.47353   4.47928   4.48871
 Alpha virt. eigenvalues --    4.49126   4.50431   4.50829   4.51126   4.52099
 Alpha virt. eigenvalues --    4.52894   4.54444   4.55600   4.56054   4.56657
 Alpha virt. eigenvalues --    4.56800   4.58131   4.58678   4.59031   4.59869
 Alpha virt. eigenvalues --    4.61004   4.62416   4.62661   4.63263   4.63841
 Alpha virt. eigenvalues --    4.64283   4.66213   4.66802   4.67833   4.68795
 Alpha virt. eigenvalues --    4.69133   4.69479   4.69887   4.71336   4.71990
 Alpha virt. eigenvalues --    4.72698   4.73089   4.74187   4.74845   4.75535
 Alpha virt. eigenvalues --    4.75960   4.76598   4.77807   4.78668   4.79558
 Alpha virt. eigenvalues --    4.79928   4.80730   4.81086   4.82023   4.82624
 Alpha virt. eigenvalues --    4.83490   4.84455   4.85248   4.86067   4.87823
 Alpha virt. eigenvalues --    4.88956   4.89723   4.90408   4.91771   4.91951
 Alpha virt. eigenvalues --    4.92560   4.94104   4.94267   4.95279   4.97568
 Alpha virt. eigenvalues --    4.98028   4.98711   4.99346   5.00828   5.01271
 Alpha virt. eigenvalues --    5.01933   5.02624   5.03608   5.04368   5.05106
 Alpha virt. eigenvalues --    5.07391   5.08143   5.09232   5.10321   5.10829
 Alpha virt. eigenvalues --    5.11710   5.12524   5.13821   5.14696   5.16229
 Alpha virt. eigenvalues --    5.17666   5.18197   5.19112   5.19407   5.19986
 Alpha virt. eigenvalues --    5.20811   5.21202   5.22097   5.22523   5.22995
 Alpha virt. eigenvalues --    5.23988   5.24706   5.25619   5.25799   5.28132
 Alpha virt. eigenvalues --    5.28593   5.30410   5.31777   5.33292   5.34357
 Alpha virt. eigenvalues --    5.36178   5.37093   5.37397   5.37830   5.38761
 Alpha virt. eigenvalues --    5.39344   5.43314   5.45884   5.46289   5.48071
 Alpha virt. eigenvalues --    5.49633   5.50427   5.51323   5.51496   5.52501
 Alpha virt. eigenvalues --    5.53379   5.54733   5.56669   5.57202   5.58619
 Alpha virt. eigenvalues --    5.59995   5.60183   5.62299   5.63420   5.64939
 Alpha virt. eigenvalues --    5.65556   5.66470   5.67635   5.68616   5.75107
 Alpha virt. eigenvalues --    5.75674   5.78049   5.79113   5.80107   5.80393
 Alpha virt. eigenvalues --    5.80944   5.86843   5.88832   5.89874   5.93636
 Alpha virt. eigenvalues --    5.97400   5.97880   5.98970   6.00264   6.06792
 Alpha virt. eigenvalues --    6.07274   6.07726   6.10285   6.12042   6.12888
 Alpha virt. eigenvalues --    6.15023   6.15407   6.18223   6.28336   6.28636
 Alpha virt. eigenvalues --    6.29214   6.30268   6.32266   6.34284   6.34942
 Alpha virt. eigenvalues --    6.35976   6.43006   6.43510   6.46544   6.48287
 Alpha virt. eigenvalues --    6.51833   6.54817   6.64844   6.67636   6.74425
 Alpha virt. eigenvalues --    6.77137   6.83637   6.84007   6.91226   6.94769
 Alpha virt. eigenvalues --    7.01540   7.04687   7.11887   7.12960   7.15518
 Alpha virt. eigenvalues --    7.17428   7.30346   7.35035   9.05908   9.30639
 Alpha virt. eigenvalues --    9.50832  19.71703  22.36178  22.40882  22.41257
 Alpha virt. eigenvalues --   22.54180  22.55953  22.59931  22.60521  22.64422
 Alpha virt. eigenvalues --   22.66114  22.72516  22.76581  22.78802  22.87330
 Alpha virt. eigenvalues --   22.91343  22.96240  22.97667  22.98840  23.00673
 Alpha virt. eigenvalues --   23.04772  23.13324  23.18522  23.19489  23.24454
 Alpha virt. eigenvalues --   23.26972  23.35880  23.46417  23.52727  23.57050
 Alpha virt. eigenvalues --   23.58308  23.61920  23.65065  23.76530  23.81857
 Alpha virt. eigenvalues --   23.87070  23.91801  32.88559  32.91310  32.93978
 Alpha virt. eigenvalues --   33.10779  43.92199  43.93978  43.96826  43.99037
  Beta  occ. eigenvalues -- -256.33401 -89.02412 -30.06534 -25.90096 -25.89753
  Beta  occ. eigenvalues --  -25.89196 -19.27844 -19.25529 -19.18030 -19.17692
  Beta  occ. eigenvalues --  -14.37249 -14.37183 -14.37166 -14.36478 -10.35895
  Beta  occ. eigenvalues --  -10.35129 -10.25292 -10.25046 -10.24847 -10.24817
  Beta  occ. eigenvalues --  -10.24773 -10.24736 -10.24652 -10.24613 -10.24466
  Beta  occ. eigenvalues --  -10.23787 -10.23025 -10.22924 -10.22684 -10.22541
  Beta  occ. eigenvalues --  -10.22449 -10.22448 -10.22415 -10.22344 -10.22112
  Beta  occ. eigenvalues --  -10.22041 -10.21982 -10.21931 -10.21928 -10.21890
  Beta  occ. eigenvalues --  -10.21739 -10.21508 -10.21477 -10.21339 -10.21260
  Beta  occ. eigenvalues --  -10.21256 -10.21232 -10.21138 -10.21081  -8.00684
  Beta  occ. eigenvalues --   -5.94355  -5.94001  -5.93471  -3.37764  -2.13373
  Beta  occ. eigenvalues --   -2.12340  -2.12135  -1.18547  -1.16424  -1.02984
  Beta  occ. eigenvalues --   -1.02398  -0.98389  -0.97353  -0.97071  -0.96039
  Beta  occ. eigenvalues --   -0.85143  -0.85010  -0.84816  -0.83848  -0.83200
  Beta  occ. eigenvalues --   -0.82009  -0.81801  -0.81014  -0.80278  -0.78980
  Beta  occ. eigenvalues --   -0.78066  -0.77179  -0.75937  -0.74555  -0.73249
  Beta  occ. eigenvalues --   -0.72700  -0.72065  -0.70848  -0.70110  -0.69535
  Beta  occ. eigenvalues --   -0.68595  -0.67161  -0.66056  -0.65507  -0.64590
  Beta  occ. eigenvalues --   -0.62946  -0.62172  -0.59591  -0.57834  -0.56106
  Beta  occ. eigenvalues --   -0.55994  -0.55092  -0.54338  -0.52926  -0.52904
  Beta  occ. eigenvalues --   -0.52496  -0.52111  -0.51635  -0.51621  -0.50867
  Beta  occ. eigenvalues --   -0.50388  -0.50260  -0.49487  -0.48885  -0.48704
  Beta  occ. eigenvalues --   -0.48615  -0.47387  -0.46930  -0.46040  -0.45799
  Beta  occ. eigenvalues --   -0.45642  -0.45357  -0.45348  -0.44980  -0.44668
  Beta  occ. eigenvalues --   -0.44441  -0.44155  -0.43934  -0.43898  -0.43492
  Beta  occ. eigenvalues --   -0.43318  -0.42880  -0.42589  -0.41973  -0.41797
  Beta  occ. eigenvalues --   -0.41357  -0.41169  -0.40739  -0.40400  -0.40105
  Beta  occ. eigenvalues --   -0.39593  -0.39489  -0.39253  -0.39193  -0.38575
  Beta  occ. eigenvalues --   -0.38437  -0.38157  -0.38010  -0.37558  -0.37514
  Beta  occ. eigenvalues --   -0.37146  -0.36918  -0.36319  -0.35491  -0.35253
  Beta  occ. eigenvalues --   -0.34967  -0.34687  -0.33843  -0.33269  -0.32968
  Beta  occ. eigenvalues --   -0.32714  -0.32554  -0.32028  -0.31408  -0.28899
  Beta  occ. eigenvalues --   -0.28390  -0.28293  -0.27744  -0.27563  -0.26687
  Beta  occ. eigenvalues --   -0.25834  -0.24557  -0.23182  -0.22765  -0.19998
  Beta  occ. eigenvalues --   -0.18943  -0.17448
  Beta virt. eigenvalues --   -0.07940  -0.07041  -0.02614  -0.01208  -0.01043
  Beta virt. eigenvalues --   -0.00683  -0.00351  -0.00226   0.00105   0.01131
  Beta virt. eigenvalues --    0.01670   0.02435   0.03525   0.03776   0.04398
  Beta virt. eigenvalues --    0.04553   0.04974   0.05302   0.05569   0.06195
  Beta virt. eigenvalues --    0.06864   0.07113   0.07481   0.07579   0.07901
  Beta virt. eigenvalues --    0.08442   0.09008   0.09416   0.09456   0.09753
[...]
  1407. RY*(   5) H  56                  0.00001     3.16356   
  1408. RY*(   1) H  57                  0.00035     1.33485   
  1409. RY*(   2) H  57                  0.00005     1.34119   
  1410. RY*(   3) H  57                  0.00005     2.33069   
  1411. RY*(   4) H  57                  0.00005     2.50764   
  1412. RY*(   5) H  57                  0.00000     3.02817   
  1413. RY*(   1) H  58                  0.00039     1.68627   
  1414. RY*(   2) H  58                  0.00008     2.70419   
  1415. RY*(   3) H  58                  0.00007     2.30749   
  1416. RY*(   4) H  58                  0.00003     1.50963   
  1417. RY*(   5) H  58                  0.00001     3.04092   
  1418. RY*(   1) H  59                  0.00034     1.70201   
  1419. RY*(   2) H  59                  0.00008     2.67447   
  1420. RY*(   3) H  59                  0.00005     2.45095   
  1421. RY*(   4) H  59                  0.00004     1.63116   
  1422. RY*(   5) H  59                  0.00000     2.82692   
  1423. RY*(   1) H  60                  0.00067     0.73258   
  1424. RY*(   2) H  60                  0.00014     2.26365   
  1425. RY*(   3) H  60                  0.00009     2.28698   
  1426. RY*(   4) H  60                  0.00007     2.95939   
  1427. RY*(   5) H  60                  0.00000     3.21726   
  1428. RY*(   1) H  61                  0.00034     1.14525   
  1429. RY*(   2) H  61                  0.00009     1.91032   
  1430. RY*(   3) H  61                  0.00002     1.77550   
  1431. RY*(   4) H  61                  0.00003     2.19577   
  1432. RY*(   5) H  61                  0.00000     2.96581   
  1433. RY*(   1) H  62                  0.00029     1.12985   
  1434. RY*(   2) H  62                  0.00009     1.88690   
  1435. RY*(   3) H  62                  0.00002     1.90496   
  1436. RY*(   4) H  62                  0.00003     2.16499   
  1437. RY*(   5) H  62                  0.00000     2.91739   
  1438. RY*(   1) H  63                  0.00041     1.05156   
  1439. RY*(   2) H  63                  0.00008     1.67819   
  1440. RY*(   3) H  63                  0.00004     2.15419   
  1441. RY*(   4) H  63                  0.00002     2.04957   
  1442. RY*(   5) H  63                  0.00000     2.92984   
  1443. RY*(   1) H  64                  0.00036     1.14574   
  1444. RY*(   2) H  64                  0.00008     2.04716   
  1445. RY*(   3) H  64                  0.00004     1.66733   
  1446. RY*(   4) H  64                  0.00003     2.12703   
  1447. RY*(   5) H  64                  0.00000     3.02862   
  1448. RY*(   1) H  65                  0.00036     1.01541   
  1449. RY*(   2) H  65                  0.00008     1.80048   
  1450. RY*(   3) H  65                  0.00003     2.04762   
  1451. RY*(   4) H  65                  0.00003     2.07289   
  1452. RY*(   5) H  65                  0.00000     2.96606   
  1453. RY*(   1) H  66                  0.00048     0.97698   
  1454. RY*(   2) H  66                  0.00008     1.75924   
  1455. RY*(   3) H  66                  0.00003     2.15624   
  1456. RY*(   4) H  66                  0.00002     2.01071   
  1457. RY*(   5) H  66                  0.00000     2.99921   
  1458. RY*(   1) H  67                  0.00061     0.64651   
  1459. RY*(   2) H  67                  0.00015     2.24719   
  1460. RY*(   3) H  67                  0.00010     2.21991   
  1461. RY*(   4) H  67                  0.00006     2.98388   
  1462. RY*(   5) H  67                  0.00000     3.21561   
  1463. RY*(   1) H  68                  0.00076     0.60689   
  1464. RY*(   2) H  68                  0.00013     2.24567   
  1465. RY*(   3) H  68                  0.00011     2.20044   
  1466. RY*(   4) H  68                  0.00006     3.00948   
  1467. RY*(   5) H  68                  0.00000     3.15515   
  1468. RY*(   1) H  69                  0.00042     1.00271   
  1469. RY*(   2) H  69                  0.00008     1.78357   
  1470. RY*(   3) H  69                  0.00003     2.03501   
  1471. RY*(   4) H  69                  0.00003     2.12842   
  1472. RY*(   5) H  69                  0.00000     2.98556   
  1473. RY*(   1) H  70                  0.00033     1.00242   
  1474. RY*(   2) H  70                  0.00007     1.76426   
  1475. RY*(   3) H  70                  0.00004     2.11067   
  1476. RY*(   4) H  70                  0.00003     2.08398   
  1477. RY*(   5) H  70                  0.00000     3.03964   
  1478. RY*(   1) H  71                  0.00042     0.96447   
  1479. RY*(   2) H  71                  0.00009     1.78883   
  1480. RY*(   3) H  71                  0.00003     2.09381   
  1481. RY*(   4) H  71                  0.00003     2.09338   
  1482. RY*(   5) H  71                  0.00000     2.98751   
  1483. RY*(   1) H  72                  0.00039     1.04270   
  1484. RY*(   2) H  72                  0.00008     1.78174   
  1485. RY*(   3) H  72                  0.00006     2.09354   
  1486. RY*(   4) H  72                  0.00003     2.18503   
  1487. RY*(   5) H  72                  0.00001     2.98652   
  1488. RY*(   1) H  73                  0.00046     1.02062   
  1489. RY*(   2) H  73                  0.00008     1.73894   
  1490. RY*(   3) H  73                  0.00005     2.14305   
  1491. RY*(   4) H  73                  0.00001     2.59536   
  1492. RY*(   5) H  73                  0.00001     2.43471   
  1493. RY*(   1) H  74                  0.00032     1.09469   
  1494. RY*(   2) H  74                  0.00010     1.82335   
  1495. RY*(   3) H  74                  0.00003     2.13666   
  1496. RY*(   4) H  74                  0.00001     2.24779   
  1497. RY*(   5) H  74                  0.00002     2.66695   
  1498. RY*(   1) H  75                  0.00074     0.67895   
  1499. RY*(   2) H  75                  0.00013     2.25951   
  1500. RY*(   3) H  75                  0.00010     2.18227   
  1501. RY*(   4) H  75                  0.00006     3.07382   
  1502. RY*(   5) H  75                  0.00000     3.21678   
  1503. RY*(   1) H  76                  0.00044     1.24212   
  1504. RY*(   2) H  76                  0.00013     1.64323   
  1505. RY*(   3) H  76                  0.00008     2.01400   
  1506. RY*(   4) H  76                  0.00003     2.35626   
  1507. RY*(   5) H  76                  0.00000     3.05362   
  1508. RY*(   1) H  77                  0.00025     1.23854   
  1509. RY*(   2) H  77                  0.00015     1.38862   
  1510. RY*(   3) H  77                  0.00007     2.05975   
  1511. RY*(   4) H  77                  0.00003     2.52701   
  1512. RY*(   5) H  77                  0.00000     3.06900   
  1513. RY*(   1) H  78                  0.00093     0.67722   
  1514. RY*(   2) H  78                  0.00013     2.23332   
  1515. RY*(   3) H  78                  0.00007     2.25264   
  1516. RY*(   4) H  78                  0.00005     2.73892   
  1517. RY*(   5) H  78                  0.00001     3.15447   
  1518. RY*(   1) H  79                  0.00048     0.81351   
  1519. RY*(   2) H  79                  0.00013     2.20321   
  1520. RY*(   3) H  79                  0.00006     2.28100   
  1521. RY*(   4) H  79                  0.00004     2.79212   
  1522. RY*(   5) H  79                  0.00001     3.13236   
  1523. RY*(   1) H  80                  0.00021     1.11952   
  1524. RY*(   2) H  80                  0.00010     1.49829   
  1525. RY*(   3) H  80                  0.00007     1.98064   
  1526. RY*(   4) H  80                  0.00001     3.08420   
  1527. RY*(   5) H  80                  0.00000     1.97112   
  1528. RY*(   1) H  81                  0.00042     1.14273   
  1529. RY*(   2) H  81                  0.00010     1.88501   
  1530. RY*(   3) H  81                  0.00007     2.15970   
  1531. RY*(   4) H  81                  0.00003     2.31140   
  1532. RY*(   5) H  81                  0.00001     2.56445   
  1539. BD*(   1) C   3 - C   7          0.01090     0.60645   
  1540. BD*(   2) C   3 - C   7          0.21174     0.04954  1558(v),234(g),1544(r)
                                                    340(g),342(g),178(r)
  1541. BD*(   1) C   3 - C  34          0.01104     0.60516   
  1542. BD*(   1) C   3 - H  60          0.00722     0.44119   
  1543. BD*(   1) C   4 - C  10          0.01037     0.56616   
  1544. BD*(   2) C   4 - C  10          0.21439     0.04420  1578(v),1558(v),1540(r)
                                                    260(g),420(g),178(r)
  1545. BD*(   1) C   4 - C  17          0.00999     0.56992   
  1546. BD*(   1) C   4 - H  68          0.00632     0.44701   
  1547. BD*(   1) C   5 - C  20          0.01029     0.62285   
  1548. BD*(   2) C   5 - C  20          0.18930     0.05405  1580(v),1595(v),1578(v)
                                                    286(g),1589(r),680(g)
                                                    1552(r),178(r)
  1549. BD*(   1) C   5 - C  24          0.01063     0.59035   
  1550. BD*(   1) C   5 - H  75          0.00740     0.44869   
  1551. BD*(   1) C   6 - C  27          0.01026     0.58132   
  1552. BD*(   2) C   6 - C  27          0.20787     0.04576  1597(v),1612(v),1595(v)
                                                    1606(r),312(g),862(g),313(g)
                                                    1548(r),178(r)
  1553. BD*(   1) C   6 - C  31          0.01062     0.59651   
  1554. BD*(   1) C   6 - H  67          0.00729     0.44329   
  1555. BD*(   1) C   7 - C   8          0.01713     0.50080   
  1556. BD*(   1) C   7 - N  41          0.01434     0.47691   
  1557. BD*(   1) C   8 - C   9          0.00985     0.60194   
  1558. BD*(   2) C   8 - C   9          0.12946     0.06708  1540(v),1544(v),1566(v)
                                                    1565(v),1568(v)
  1559. BD*(   1) C   8 - C  12          0.01155     0.39349   
  1560. BD*(   1) C   9 - C  10          0.01702     0.48067   
  1561. BD*(   1) C   9 - C  11          0.00877     0.37981   
  1562. BD*(   1) C  10 - N  41          0.01250     0.49353   
  1563. BD*(   1) C  11 - H  61          0.00322     0.41514   
  1564. BD*(   1) C  11 - H  62          0.00301     0.41427   
  1565. BD*(   1) C  11 - H  63          0.00480     0.41084   
  1566. BD*(   1) C  12 - C  13          0.00698     0.35892   
  1567. BD*(   1) C  12 - H  58          0.00617     0.42642   
  1568. BD*(   1) C  12 - H  59          0.00721     0.41366   
  1569. BD*(   1) C  13 - C  14          0.03790     0.33896   
  1570. BD*(   1) C  13 - H  56          0.00607     0.39376   
  1571. BD*(   1) C  13 - H  57          0.00603     0.39252   
  1572. BD*(   1) C  14 - O  15          0.01916     0.55483   
  1573. BD*(   2) C  14 - O  15          0.10016     0.00325  1575(v),1571(v),1570(v)
  1574. BD*(   1) C  14 - O  16          0.03390     0.49760   
  1575. BD*(   1) O  16 - H  55          0.00685     0.38342   
  1576. BD*(   1) C  17 - C  18          0.01702     0.47764   
  1577. BD*(   1) C  17 - N  42          0.01339     0.47610   
  1578. BD*(   2) C  17 - N  42          0.32468    -0.00115  1544(v),1580(v),1548(v)
                                                    178(r),599(g),1248(g),602(g)
                                                    1612(r),1252(g),177(r)
                                                    1537(r),179(r),1533(r)
  1579. BD*(   1) C  18 - C  19          0.01314     0.63683   
  1580. BD*(   2) C  18 - C  19          0.12156     0.07449  1589(v),1548(v),1578(v)
                                                    1590(v),1587(v),1585(v)
                                                    1588(v)
  1581. BD*(   1) C  18 - C  21          0.00842     0.39706   
  1582. BD*(   1) C  19 - C  20          0.02370     0.49487   
  1583. BD*(   1) C  19 - C  22          0.01263     0.60596   
  1584. BD*(   1) C  20 - N  42          0.01326     0.49044   
  1585. BD*(   1) C  21 - H  69          0.00451     0.40683   
  1586. BD*(   1) C  21 - H  70          0.00287     0.41547   
  1587. BD*(   1) C  21 - H  71          0.00458     0.40756   
  1588. BD*(   1) C  22 - C  23          0.00525     0.55897   
  1589. BD*(   2) C  22 - C  23          0.02360     0.07914   
  1590. BD*(   1) C  22 - H  78          0.01265     0.44113   
  1591. BD*(   1) C  23 - H  76          0.00449     0.44166   
  1592. BD*(   1) C  23 - H  77          0.00336     0.44197   
  1593. BD*(   1) C  24 - C  25          0.01583     0.48401   
  1594. BD*(   1) C  24 - N  43          0.01347     0.48548   
  1595. BD*(   2) C  24 - N  43          0.33346     0.00224  1548(v),1597(v),1552(v)
                                                    177(r),178(r),781(g),782(g)
                                                    175(r),1275(g),1276(g)
                                                    286(v),179(r),173(r),1537(r)
                                                    176(r)
  1596. BD*(   1) C  25 - C  26          0.01262     0.61341   
  1597. BD*(   2) C  25 - C  26          0.15997     0.06595  1606(v),1552(v),1595(v)
                                                    1603(v),1604(v),808(g)
                                                    834(g)
  1598. BD*(   1) C  25 - C  28          0.00838     0.38763   
  1599. BD*(   1) C  26 - C  27          0.01672     0.50157   
  1600. BD*(   1) C  26 - C  29          0.01250     0.58031   
  1601. BD*(   1) C  27 - N  43          0.01323     0.46367   
  1602. BD*(   1) C  28 - H  72          0.00481     0.42256   
  1603. BD*(   1) C  28 - H  73          0.00471     0.40372   
  1604. BD*(   1) C  28 - H  74          0.00430     0.41183   
  1605. BD*(   1) C  29 - C  30          0.00430     0.59750   
  1606. BD*(   2) C  29 - C  30          0.04667     0.04767   
  1607. BD*(   1) C  29 - H  79          0.00965     0.44532   
  1608. BD*(   1) C  30 - H  80          0.00373     0.44603   
  1609. BD*(   1) C  30 - H  81          0.00679     0.45577   
  1610. BD*(   1) C  31 - C  32          0.01778     0.48364   
  1611. BD*(   1) C  31 - N  44          0.01327     0.46518   
  1612. BD*(   2) C  31 - N  44          0.32664    -0.00394  1552(v),1614(v),178(r)
                                                    963(g),1300(g),966(g)
                                                    1553(g),1578(r),179(r)
                                                    1537(r),1538(r),1536(r)
  1613. BD*(   1) C  32 - C  33          0.01016     0.64111   
  1614. BD*(   2) C  32 - C  33          0.11722     0.07064  1612(v),1622(v),1621(v)
                                                    1620(v),1623(v)
  1615. BD*(   1) C  32 - C  35          0.00903     0.38404   
  1616. BD*(   1) C  33 - C  34          0.01791     0.49500   
  1617. BD*(   1) C  33 - C  36          0.01271     0.40973   
  1618. BD*(   1) C  34 - N  44          0.01351     0.47562   
  1619. BD*(   1) C  35 - H  64          0.00334     0.40848   
  1620. BD*(   1) C  35 - H  65          0.00399     0.40292   
  1621. BD*(   1) C  35 - H  66          0.00522     0.39968   
  1622. BD*(   1) C  36 - C  37          0.00908     0.35652   
  1623. BD*(   1) C  36 - H  53          0.00856     0.39812   
  1624. BD*(   1) C  36 - H  54          0.00724     0.40781   
  1625. BD*(   1) C  37 - C  38          0.03252     0.34228   
  1626. BD*(   1) C  37 - H  51          0.00581     0.38377   
  1627. BD*(   1) C  37 - H  52          0.00566     0.39166   
  1628. BD*(   1) C  38 - O  39          0.03623     0.49180   
  1629. BD*(   1) C  38 - O  40          0.02615     0.51189   
  1630. BD*(   2) C  38 - O  40          0.11028     0.03409  1629(g),1626(v),1631(v)
                                                    1153(g),1146(g)
  1631. BD*(   1) O  39 - H  50          0.00741     0.37201   
       -------------------------------
              Total Lewis  144.53432  ( 97.4622%)
        Valence non-Lewis    3.47767  (  2.3451%)
        Rydberg non-Lewis    0.28585  (  0.1928%)
       -------------------------------
            Total unit  2  148.29785  (100.0000%)
           Charge unit  2   -0.29785
 1\1\GINC-NODE384\SP\UPBE1PBE\def2TZVP\C35H36Fe1N4O4S1(5)\ZHARTOVSKA\20
 -Jan-2023\0\\# PBE1PBE/def2TZVP guess=read scf=qc empiricaldispersion=
 GD3BJ scf=maxcycle=999 geom=check pop=nbo\\1nsi_II_Q\\0,5\C,0,8.683,56
 .271,21.173\S,0,7.492,57.354,20.386999\C,0,11.139,59.296001,19.858999\
 C,0,6.717,61.168999,19.878\C,0,5.541,58.146999,16.419001\C,0,9.626,55.
 710999,17.129\C,0,10.08,60.132999,20.052999\C,0,10.209,61.414001,20.69
 8999\C,0,8.939,61.889999,20.819\C,0,8.059,60.938999,20.156\C,0,8.521,6
 3.179001,21.527\C,0,11.493,62.182999,21.000999\C,0,12.287,62.603001,19
 .759001\C,0,13.375,63.629002,20.063\O,0,13.388,64.166,21.190001\O,0,14
 .214,63.903999,19.176001\C,0,5.93,60.422001,19.016001\C,0,4.599,60.798
 ,18.556\C,0,4.289,59.960999,17.559999\C,0,5.419,59.07,17.402\C,0,3.698
 ,61.876999,19.104\C,0,3.139,60.019001,16.823999\C,0,2.214,59.028999,16
 .809999\C,0,6.584,57.259998,16.294001\C,0,6.606,56.187,15.315\C,0,7.73
 5,55.472,15.556\C,0,8.388,56.108002,16.673\C,0,5.524,55.921001,14.287\
 C,0,8.262,54.355999,14.932\C,0,7.45527725,53.53595165,14.21555894\C,0,
 10.364,56.419998,18.035\C,0,11.779,56.195999,18.267\C,0,12.222,57.2859
 99,18.892\C,0,11.079,58.130001,19.153999\C,0,12.603,54.959999,17.965\C
 ,0,13.668,57.611,19.145\C,0,14.242,58.657001,18.195999\C,0,15.678,59.0
 06001,18.523001\O,0,16.295,58.268002,19.313\O,0,16.194,60.016998,18.00
 2001\N,0,8.772,59.867001,19.68\N,0,6.405,59.318001,18.329\N,0,7.668,57
 .205002,17.142\N,0,9.913,57.602001,18.620001\Fe,0,8.095,58.400002,18.5
 35999\H,0,9.57273242,56.82172996,21.39654581\H,0,8.26751839,55.8815686
 5,22.07887982\H,0,8.92012541,55.46283285,20.51304743\H,0,6.29637709,57
 .52133713,20.8955107\H,0,17.25498808,58.26473575,19.31649639\H,0,14.19
 676694,58.27902607,17.19600454\H,0,13.64733558,59.54434984,18.25833885
 \H,0,13.76544513,57.97128659,20.1477951\H,0,14.24082392,56.71248141,19
 .04785523\H,0,15.15268378,63.84442492,19.36815637\H,0,12.74357457,61.7
 3407301,19.33308574\H,0,11.61009473,63.02173001,19.04390291\H,0,11.238
 40153,63.06316035,21.55362511\H,0,12.12028437,61.5678519,21.61174311\H
 ,0,12.07932527,59.5723408,20.28832953\H,0,9.26385269,63.93189072,21.36
 505265\H,0,7.58312169,63.51318037,21.1350709\H,0,8.42348719,62.9940434
 6,22.57637217\H,0,13.53018244,55.01079002,18.4966512\H,0,12.0635717,54
 .08813251,18.27121223\H,0,12.79687707,54.90862767,16.9139659\H,0,10.03
 279164,54.79574117,16.75253797\H,0,6.25055167,61.9951344,20.37279922\H
 ,0,4.18576704,62.82565031,19.02007146\H,0,2.78424397,61.89530536,18.54
 75696\H,0,3.4850055,61.67526058,20.13299706\H,0,5.88137351,55.21390021
 ,13.56783893\H,0,4.65750682,55.5262992,14.77515988\H,0,5.26944017,56.8
 3506054,13.79243509\H,0,4.76587902,58.10459957,15.68259775\H,0,2.47356
 061,58.04939878,17.15338174\H,0,1.22397784,59.2268041,16.45555682\H,0,
 2.96004313,60.89002013,16.22885186\H,0,9.30669202,54.140012,15.0148745
 6\H,0,7.82375583,52.59378319,13.86707346\H,0,6.44985103,53.83065258,13
 .99837358\\Version=ES64L-G16RevA.03\State=5-A\HF=-3535.4856336\S2=6.08
 0145\S2-1=0.\S2A=6.000555\RMSD=3.374e-10\Dipole=0.0784689,-1.8109684,0
 .4019376\Quadrupole=19.2314877,-10.2401342,-8.9913535,-20.0461064,2.94
 95647,-6.976844\PG=C01 [X(C35H36Fe1N4O4S1)]\\@


 IF YOU PERCEIVE THAT THERE ARE FOUR POSSIBLE WAYS IN
 WHICH A PROCEDURE CAN GO WRONG AND CIRCUMVENT THESE, 
 THEN A FIFTH WAY WILL DEVELOP.

                              -- MURPHY'S TWELFTH LAW
 Job cpu time:      21 days 12 hours 37 minutes 54.1 seconds.
 Elapsed time:       5 days  9 hours 57 minutes  4.3 seconds.
 File lengths (MBytes):  RWF=   2425 Int=      0 D2E=      0 Chk=    205 Scr=      1
 Normal termination of Gaussian 16 at Fri Jan 20 03:32:46 2023.
