 Initial command:
 /afs/math/software/gaussian/g16.A03/g16/l1.exe "/scratch/zhartovska_gaussian.Kb91LbS/Gau-17632.inp" -scrdir="/scratch/zhartovska_gaussian.Kb91LbS/"
 Entering Link 1 = /afs/math/software/gaussian/g16.A03/g16/l1.exe PID=     22006.
  
 Copyright (c) 1988,1990,1992,1993,1995,1998,2003,2009,2016,
            Gaussian, Inc.  All Rights Reserved.
  
 This is part of the Gaussian(R) 16 program.  It is based on
 the Gaussian(R) 09 system (copyright 2009, Gaussian, Inc.),
 the Gaussian(R) 03 system (copyright 2003, Gaussian, Inc.),
 the Gaussian(R) 98 system (copyright 1998, Gaussian, Inc.),
 the Gaussian(R) 94 system (copyright 1995, Gaussian, Inc.),
 the Gaussian 92(TM) system (copyright 1992, Gaussian, Inc.),
 the Gaussian 90(TM) system (copyright 1990, Gaussian, Inc.),
 the Gaussian 88(TM) system (copyright 1988, Gaussian, Inc.),
 the Gaussian 86(TM) system (copyright 1986, Carnegie Mellon
 University), and the Gaussian 82(TM) system (copyright 1983,
 Carnegie Mellon University). Gaussian is a federally registered
 trademark of Gaussian, Inc.
  
 This software contains proprietary and confidential information,
 including trade secrets, belonging to Gaussian, Inc.
  
 This software is provided under written license and may be
 used, copied, transmitted, or stored only in accord with that
 written license.
  
 The following legend is applicable only to US Government
 contracts under FAR:
  
                    RESTRICTED RIGHTS LEGEND
  
 Use, reproduction and disclosure by the US Government is
 subject to restrictions as set forth in subparagraphs (a)
 and (c) of the Commercial Computer Software - Restricted
 Rights clause in FAR 52.227-19.
  
 Gaussian, Inc.
 340 Quinnipiac St., Bldg. 40, Wallingford CT 06492
  
  
 ---------------------------------------------------------------
 Warning -- This program may not be used in any manner that
 competes with the business of Gaussian, Inc. or will provide
 assistance to any competitor of Gaussian, Inc.  The licensee
 of this program is prohibited from giving any competitor of
 Gaussian, Inc. access to this program.  By using this program,
 the user acknowledges that Gaussian, Inc. is engaged in the
 business of creating and licensing software in the field of
 computational chemistry and represents and warrants to the
 licensee that it is not a competitor of Gaussian, Inc. and that
 it will not use this program in any manner prohibited above.
 ---------------------------------------------------------------
  

 Cite this work as:
 Gaussian 16, Revision A.03,
 M. J. Frisch, G. W. Trucks, H. B. Schlegel, G. E. Scuseria, 
 M. A. Robb, J. R. Cheeseman, G. Scalmani, V. Barone, 
 G. A. Petersson, H. Nakatsuji, X. Li, M. Caricato, A. V. Marenich, 
 J. Bloino, B. G. Janesko, R. Gomperts, B. Mennucci, H. P. Hratchian, 
 J. V. Ortiz, A. F. Izmaylov, J. L. Sonnenberg, D. Williams-Young, 
 F. Ding, F. Lipparini, F. Egidi, J. Goings, B. Peng, A. Petrone, 
 T. Henderson, D. Ranasinghe, V. G. Zakrzewski, J. Gao, N. Rega, 
 G. Zheng, W. Liang, M. Hada, M. Ehara, K. Toyota, R. Fukuda, 
 J. Hasegawa, M. Ishida, T. Nakajima, Y. Honda, O. Kitao, H. Nakai, 
 T. Vreven, K. Throssell, J. A. Montgomery, Jr., J. E. Peralta, 
 F. Ogliaro, M. J. Bearpark, J. J. Heyd, E. N. Brothers, K. N. Kudin, 
 V. N. Staroverov, T. A. Keith, R. Kobayashi, J. Normand, 
 K. Raghavachari, A. P. Rendell, J. C. Burant, S. S. Iyengar, 
 J. Tomasi, M. Cossi, J. M. Millam, M. Klene, C. Adamo, R. Cammi, 
 J. W. Ochterski, R. L. Martin, K. Morokuma, O. Farkas, 
 J. B. Foresman, and D. J. Fox, Gaussian, Inc., Wallingford CT, 2016.
 
 ******************************************
 Gaussian 16:  AM64L-G16RevA.03 25-Dec-2016
                22-Jan-2023 
 ******************************************
 %nprocs=12
 Will use up to   12 processors via shared memory.
 %mem=16GB
 %chk=1qpu_III_H.chk
 ----------------------------------------------------------------------
 # PBE1PBE/def2TZVP empiricaldispersion=GD3BJ int=(grid=ultrafine) geom
 =check guess=read scrf=(smd,solvent=Chloroform)
 ----------------------------------------------------------------------
 1/29=2,38=1,172=1/1;
 2/12=2,40=1/2;
 3/5=44,7=101,11=2,14=-4,25=1,30=1,70=32201,72=7,74=-13,75=-5,116=-2,124=41/1,2,3;
 4/5=1/1;
 5/5=2,38=6,53=7/2;
 6/7=2,8=2,9=2,10=2,28=1/1;
 99/5=1,9=1/99;
 ---------------
 1qpu_III_H_solv
 ---------------
 Structure from the checkpoint file:  "1qpu_III_H.chk"
 Charge =  1 Multiplicity = 6
 Z-Matrix found in chk file.
 C,0,2.282,-5.169,8.634
 C,0,3.509,-5.724,7.905
 S,0,3.301,-5.824,6.104
 C,0,4.897,-5.355,5.406
 H,0,2.46731386,-5.15936603,9.68778649
 H,0,1.43388655,-5.787553,8.42664582
 H,0,4.324,-5.028,8.095
 H,0,3.791,-6.69,8.319
 H,0,5.164,-4.376,5.804
 H,0,5.661,-6.086,5.662
 H,0,4.798,-5.274,4.324
 C,0,0.966,-12.429,2.492
 C,0,0.992,-11.18,3.345
 N,0,-0.055,-10.84,4.164
 C,0,1.929,-10.176,3.425
 C,0,0.226,-9.654,4.709
 N,0,1.436,-9.215,4.325
 H,0,0.21168143,-12.33130538,1.73943156
 H,0,0.7481295,-13.27674538,3.10743498
 H,0,-0.949,-11.309,4.18
 H,0,2.864,-10.127,2.888
 H,0,-0.457,-9.141,5.365
 C,0,2.314,-8.973,8.107
 C,0,-0.757,-6.058,5.779
 C,0,2.335,-6.11,1.965
 C,0,5.465,-8.968,4.422
 C,0,1.226,-8.25,7.755
 C,0,0.107,-8.117,8.63
 C,0,-0.757,-7.265,8.011
 C,0,-0.191,-6.899,6.728
 C,0,-2.005,-6.837,8.669
 C,0,0.025,-8.751,10.003
 C,0,-0.643,-8.068,11.217
 C,0,-0.866,-9.024,12.375
 O,0,-0.739,-8.55,13.523
 O,0,-1.21,-10.192,12.089
 C,0,-0.156,-5.832,4.532
 C,0,-0.669,-4.922,3.536
 C,0,0.206,-4.945,2.47
 C,0,1.26,-5.86,2.806
 C,0,-1.853,-4.028,3.762
 C,0,0.182,-4.178,1.173
 C,0,-1.055,-3.366,0.836
 C,0,3.427,-6.904,2.311
 C,0,4.529,-7.184,1.431
 C,0,5.431,-7.971,2.114
 C,0,4.86,-8.208,3.42
 C,0,4.516,-6.824,-0.022
 C,0,6.755,-8.516,1.615
 C,0,7.42,-7.741,0.48
 C,0,4.87,-9.139,5.664
 C,0,5.437,-9.871,6.774
 C,0,4.524,-9.875,7.778
 C,0,3.412,-9.117,7.329
 C,0,6.738,-10.558,6.92
 C,0,4.537,-10.691,9.042
 C,0,5.019,-9.893,10.237
 C,0,4.08,-10.031,11.412
 O,0,3.575,-8.969,11.83
 O,0,3.845,-11.19,11.812
 N,0,1.007,-7.536,6.637
 N,0,1.002,-6.365,4.033
 N,0,3.649,-7.553,3.467
 N,0,3.652,-8.675,6.086
 Fe,0,2.258,-7.553,5.013
 H,0,-1.686,-5.569,6.019
 H,0,2.316,-5.623,1.005
 H,0,6.418,-9.439,4.239
 H,0,2.334,-9.411,9.085
 H,0,-1.677,-6.14,9.44
 H,0,-2.746,-6.429,7.988
 H,0,-2.345,-7.759,9.139
 H,0,0.999,-8.495,10.306
 H,0,0.074,-9.856,9.977
 H,0,-1.591,-7.597,11.021
 H,0,0.034,-7.278,11.56
 H,0,-1.732,-3.646,4.768
 H,0,-1.898,-3.178,3.088
 H,0,-2.776,-4.598,3.706
 H,0,4.603,-5.747,-0.139
 H,0,5.288,-7.325,-0.593
 H,0,3.54,-7.158,-0.366
 H,0,7.47,-9.817,7.227
 H,0,6.536,-11.273,7.724
 H,0,7.033,-11.061,6.01
 H,0,4.91,-11.691,9.02
 H,0,3.545,-11.02,9.192
 H,0,4.974,-8.851,9.953
 H,0,6.036,-10.179,10.508
 H,0,4.5711661,-11.7835636,12.0168537
 H,0,0.13689903,-8.40003863,13.88619758
 H,0,-1.26640411,-2.46516465,1.37331181
 H,0,6.9546156,-7.69729279,-0.48250041
 H,0,2.08745112,-4.17228276,8.29694589
 H,0,1.91979822,-12.56241773,2.02577187
 H,0,8.35142881,-7.24157275,0.64707123
 H,0,7.198495,-9.39461495,2.03481895
 H,0,-1.71576114,-3.69432267,0.06108133
 H,0,1.01764659,-4.2052942,0.50528014
 Recover connectivity data from disk.
 Stoichiometry    C41H46FeN6O4S(1+,6)
 Framework group  C1[X(C41H46FeN6O4S)]
 Deg. of freedom   291
 Full point group                 C1      NOp   1
 Largest Abelian subgroup         C1      NOp   1
 Largest concise Abelian subgroup C1      NOp   1
                         Standard orientation:                         
 ---------------------------------------------------------------------
 Center     Atomic      Atomic             Coordinates (Angstroms)
 Number     Number       Type             X           Y           Z
 ---------------------------------------------------------------------
      1          6           0        1.825752    1.252355   -3.086128
      2          6           0        1.072856   -0.076888   -2.980033
      3         16           0       -0.585717    0.082651   -2.258544
      4          6           0       -1.628464   -1.060936   -3.185511
      5          1           0        2.798313    1.079553   -3.497423
      6          1           0        1.922062    1.686380   -2.112862
      7          1           0        0.945707   -0.443544   -3.996958
      8          1           0        1.667100   -0.806443   -2.433499
      9          1           0       -1.540405   -0.814697   -4.243691
     10          1           0       -1.322463   -2.090490   -3.012380
     11          1           0       -2.664881   -0.917830   -2.881459
     12          6           0       -1.977414   -1.100435    5.408808
     13          6           0       -1.484939   -0.518347    4.102313
     14          7           0       -0.620788    0.546696    4.063641
     15          6           0       -1.814848   -0.836854    2.805355
     16          6           0       -0.447308    0.880897    2.782705
     17          7           0       -1.120563    0.052896    1.966974
     18          1           0       -2.597910   -0.384887    5.906679
     19          1           0       -1.140219   -1.340335    6.030461
     20          1           0       -0.341983    1.091086    4.866984
     21          1           0       -2.490618   -1.616519    2.488413
     22          1           0        0.158643    1.717861    2.478881
     23          6           0        2.282875   -0.649626    0.218819
     24          6           0       -0.180020    3.497667   -0.067466
     25          6           0       -4.304226    0.845468   -0.325393
     26          6           0       -1.742306   -3.326906   -0.152844
     27          6           0        1.939749    0.658979    0.232795
     28          6           0        2.921456    1.683261    0.383036
     29          6           0        2.254750    2.865283    0.265184
     30          6           0        0.846805    2.574813    0.081558
     31          6           0        2.975545    4.151039    0.295799
     32          6           0        4.404935    1.419180    0.535877
     33          6           0        5.497493    2.318467   -0.083888
     34          6           0        6.880410    2.020923    0.467145
     35          8           0        7.834465    2.127103   -0.331112
     36          8           0        6.959555    1.746295    1.684795
     37          6           0       -1.523782    3.106942   -0.161928
     38          6           0       -2.621504    4.018632   -0.378982
     39          6           0       -3.773804    3.263782   -0.449087
     40          6           0       -3.391737    1.889955   -0.282770
     41          6           0       -2.441251    5.486181   -0.635844
     42          6           0       -5.201396    3.684581   -0.685696
     43          6           0       -5.528694    5.166449   -0.680472
     44          6           0       -3.949460   -0.501653   -0.280428
     45          6           0       -4.895900   -1.583832   -0.299036
     46          6           0       -4.190791   -2.767708   -0.272216
     47          6           0       -2.792824   -2.409419   -0.200375
     48          6           0       -6.370809   -1.371547   -0.155660
     49          6           0       -4.742565   -4.179894   -0.288919
     50          6           0       -6.129119   -4.356305   -0.903264
     51          6           0       -0.418234   -2.914098   -0.105400
     52          6           0        0.734324   -3.786411   -0.095803
     53          6           0        1.840490   -3.010932    0.033151
     54          6           0        1.399861   -1.662631    0.058408
     55          6           0        0.837412   -5.259024   -0.177488
     56          6           0        3.250818   -3.445904    0.325546
     57          6           0        4.110100   -3.488562   -0.922239
     58          6           0        5.417540   -2.759492   -0.721118
     59          8           0        5.628473   -1.801759   -1.493029
     60          8           0        6.130999   -3.135153    0.231962
     61          7           0        0.727846    1.220159    0.077713
     62          7           0       -2.051753    1.844920   -0.110924
     63          7           0       -2.718290   -1.033871   -0.192189
     64          7           0        0.063509   -1.632881   -0.047847
     65         26           0       -1.018939    0.150369   -0.005700
     66          1           0        0.075072    4.543025   -0.111256
     67          1           0       -5.340214    1.118064   -0.432865
     68          1           0       -1.951486   -4.385104   -0.152369
     69          1           0        3.323438   -0.899125    0.279691
     70          1           0        3.480991    4.198865   -0.668603
     71          1           0        2.342439    5.007450    0.508034
     72          1           0        3.712627    3.982789    1.080008
     73          1           0        4.471443    0.694863   -0.223704
     74          1           0        4.652499    0.830191    1.439153
     75          1           0        5.344420    3.378278    0.027153
     76          1           0        5.514732    2.115821   -1.160325
     77          1           0       -1.598312    5.554278   -1.312171
     78          1           0       -3.292357    5.956507   -1.118765
     79          1           0       -2.200802    6.006918    0.286644
     80          1           0       -6.769641   -0.912327   -1.056347
     81          1           0       -6.913134   -2.281234    0.071009
     82          1           0       -6.456310   -0.683448    0.682002
     83          1           0        0.823853   -5.533137   -1.228122
     84          1           0        1.818200   -5.449986    0.269763
     85          1           0        0.049440   -5.749940    0.375896
     86          1           0        3.423164   -4.264495    0.988734
     87          1           0        3.637755   -2.749194    1.018136
     88          1           0        3.582229   -2.929352   -1.681898
     89          1           0        4.276615   -4.517951   -1.241859
     90          1           0        6.359481   -4.063019    0.323935
     91          1           0        8.001145    1.434598   -0.974738
     92          1           0       -5.210578    5.787468   -1.491667
     93          1           0       -6.982858   -3.915208   -0.432665
     94          1           0        1.282956    1.919922   -3.722231
     95          1           0       -2.542460   -1.987817    5.213421
     96          1           0       -6.247104   -4.921034   -1.804408
     97          1           0       -4.191055   -5.006609    0.107667
     98          1           0       -6.077576    5.590242    0.134407
     99          1           0       -5.966410    2.955537   -0.853465
 ---------------------------------------------------------------------
 Rotational constants (GHZ):           0.0723784           0.0429958           0.0339845
 Standard basis: def2TZVP (5D, 7F)
 There are  2206 symmetry adapted cartesian basis functions of A   symmetry.
 There are  1939 symmetry adapted basis functions of A   symmetry.
  1939 basis functions,  3140 primitive gaussians,  2206 cartesian basis functions
   206 alpha electrons      201 beta electrons
       nuclear repulsion energy      8930.8067496212 Hartrees.
 NAtoms=   99 NActive=   99 NUniq=   99 SFac= 1.00D+00 NAtFMM=   60 NAOKFM=T Big=T
 Integral buffers will be    131072 words long.
 Raffenetti 2 integral format.
 Two-electron integral symmetry is turned on.
 Nuclear repulsion after empirical dispersion term =     8930.6559270353 Hartrees.
 ------------------------------------------------------------------------------
 Polarizable Continuum Model (PCM)
 =================================
 Model                : PCM.
 Atomic radii         : SMD-Coulomb.
 Polarization charges : Total charges.
 Charge compensation  : None.
 Solution method      : On-the-fly selection.
 Cavity type          : VdW (van der Waals Surface) (Alpha=1.000).
 Cavity algorithm     : GePol (No added spheres)
                        Default sphere list used, NSphG=   99.
                        Lebedev-Laikov grids with approx.  5.0 points / Ang**2.
                        Smoothing algorithm: York/Karplus (Gamma=1.0000).
                        Polarization charges: spherical gaussians, with
                                              point-specific exponents (IZeta= 3).
                        Self-potential: point-specific (ISelfS= 7).
                        Self-field    : sphere-specific E.n sum rule (ISelfD= 2).
 Solvent              : Chloroform, Eps=   4.711300 Eps(inf)=   2.090627
 ------------------------------------------------------------------------------
 ------------------------------------------------------------------------------
 Atomic radii for non-electrostatic terms: SMD-CDS.
 ------------------------------------------------------------------------------
 Nuclear repulsion after PCM non-electrostatic terms =     8930.6374891658 Hartrees.
 One-electron integrals computed using PRISM.
   1 Symmetry operations used in ECPInt.
 ECPInt:  NShTT=  299151 NPrTT=  925475 LenC2=  220277 LenP2D=  440878.
 LDataN:  DoStor=T MaxTD1= 6 Len=  172
 NBasis=  1939 RedAO= T EigKep=  2.66D-06  NBF=  1939
 NBsUse=  1939 1.00D-06 EigRej= -1.00D+00 NBFU=  1939
 Initial guess from the checkpoint file:  "1qpu_III_H.chk"
 B after Tr=    -0.000000    0.000000    0.000000
         Rot=    1.000000   -0.000000    0.000000    0.000000 Ang=   0.00 deg.
 Initial guess <Sx>= 0.0000 <Sy>= 0.0000 <Sz>= 2.5000 <S**2>= 9.0561 S= 2.5506
 Requested convergence on RMS density matrix=1.00D-08 within 128 cycles.
 Requested convergence on MAX density matrix=1.00D-06.
 Requested convergence on             energy=1.00D-06.
 No special actions if energy rises.
 Inv3:  Mode=1 IEnd=   138924075.
 Iteration    1 A*A^-1 deviation from unit magnitude is 3.66D-15 for    633.
 Iteration    1 A*A^-1 deviation from orthogonality  is 2.52D-15 for   2431    653.
 Iteration    1 A^-1*A deviation from unit magnitude is 3.55D-15 for   1241.
 Iteration    1 A^-1*A deviation from orthogonality  is 4.33D-15 for   5328   5326.
 EnCoef did     4 forward-backward iterations
 EnCoef did     2 forward-backward iterations
 Restarting incremental Fock formation.
 Restarting incremental Fock formation.
 Error on total polarization charges =  0.07824
 SCF Done:  E(UPBE1PBE) =  -3879.08719705     A.U. after   49 cycles
            NFock= 49  Conv=0.23D-08     -V/T= 2.0032
 <Sx>= 0.0000 <Sy>= 0.0000 <Sz>= 2.5000 <S**2>= 9.0285 S= 2.5461
 <L.S>= 0.000000000000E+00
 SMD-CDS (non-electrostatic) energy       (kcal/mol) =     -11.57
 (included in total energy above)
 Annihilation of the first spin contaminant:
 S**2 before annihilation     9.0285,   after     8.7666

 **********************************************************************

            Population analysis using the SCF density.

 **********************************************************************

 Orbital symmetries:
 Alpha Orbitals:
       Occupied  (A) (A) (A) (A) (A) (A) (A) (A) (A) (A) (A) (A)
                 (A) (A) (A) (A) (A) (A) (A) (A) (A) (A) (A) (A)
                 (A) (A) (A) (A) (A) (A) (A) (A) (A) (A) (A) (A)
                 (A) (A) (A) (A) (A) (A) (A) (A) (A) (A) (A) (A)
                 (A) (A) (A) (A) (A) (A) (A) (A) (A) (A) (A) (A)
                 (A) (A) (A) (A) (A) (A) (A) (A) (A) (A) (A) (A)
                 (A) (A) (A) (A) (A) (A) (A) (A) (A) (A) (A) (A)
                 (A) (A) (A) (A) (A) (A) (A) (A) (A) (A) (A) (A)
                 (A) (A) (A) (A) (A) (A) (A) (A) (A) (A) (A) (A)
                 (A) (A) (A) (A) (A) (A) (A) (A) (A) (A) (A) (A)
                 (A) (A) (A) (A) (A) (A) (A) (A) (A) (A) (A) (A)
                 (A) (A) (A) (A) (A) (A) (A) (A) (A) (A) (A) (A)
                 (A) (A) (A) (A) (A) (A) (A) (A) (A) (A) (A) (A)
                 (A) (A) (A) (A) (A) (A) (A) (A) (A) (A) (A) (A)
                 (A) (A) (A) (A) (A) (A) (A) (A) (A) (A) (A) (A)
                 (A) (A) (A) (A) (A) (A) (A) (A) (A) (A) (A) (A)
                 (A) (A) (A) (A) (A) (A) (A) (A) (A) (A) (A) (A)
                 (A) (A)
       Virtual   (A) (A) (A) (A) (A) (A) (A) (A) (A) (A) (A) (A)
                 (A) (A) (A) (A) (A) (A) (A) (A) (A) (A) (A) (A)
                 (A) (A) (A) (A) (A) (A) (A) (A) (A) (A) (A) (A)
                 (A) (A) (A) (A) (A) (A) (A) (A) (A) (A) (A) (A)
                 (A) (A) (A) (A) (A) (A) (A) (A) (A) (A) (A) (A)
                 (A) (A) (A) (A) (A) (A) (A) (A) (A) (A) (A) (A)
                 (A) (A) (A) (A) (A) (A) (A) (A) (A) (A) (A) (A)
                 (A) (A) (A) (A) (A) (A) (A) (A) (A) (A) (A) (A)
                 (A) (A) (A) (A) (A) (A) (A) (A) (A) (A) (A) (A)
                 (A) (A) (A) (A) (A) (A) (A) (A) (A) (A) (A) (A)
                 (A) (A) (A) (A) (A) (A) (A) (A) (A) (A) (A) (A)
                 (A) (A) (A) (A) (A) (A) (A) (A) (A) (A) (A) (A)
                 (A) (A) (A) (A) (A) (A) (A) (A) (A) (A) (A) (A)
                 (A) (A) (A) (A) (A) (A) (A) (A) (A) (A) (A) (A)
                 (A) (A) (A) (A) (A) (A) (A) (A) (A) (A) (A) (A)
                 (A) (A) (A) (A) (A) (A) (A) (A) (A) (A) (A) (A)
                 (A) (A) (A) (A) (A) (A) (A) (A) (A) (A) (A) (A)
                 (A) (A) (A) (A) (A) (A) (A) (A) (A) (A) (A) (A)
                 (A) (A) (A) (A) (A) (A) (A) (A) (A) (A) (A) (A)
                 (A) (A) (A) (A) (A) (A) (A) (A) (A) (A) (A) (A)
                 (A) (A) (A) (A) (A) (A) (A) (A) (A) (A) (A) (A)
                 (A) (A) (A) (A) (A) (A) (A) (A) (A) (A) (A) (A)
                 (A) (A) (A) (A) (A) (A) (A) (A) (A) (A) (A) (A)
                 (A) (A) (A) (A) (A) (A) (A) (A) (A) (A) (A) (A)
                 (A) (A) (A) (A) (A) (A) (A) (A) (A) (A) (A) (A)
                 (A) (A) (A) (A) (A) (A) (A) (A) (A) (A) (A) (A)
                 (A) (A) (A) (A) (A) (A) (A) (A) (A) (A) (A) (A)
                 (A) (A) (A) (A) (A) (A) (A) (A) (A) (A) (A) (A)
                 (A) (A) (A) (A) (A) (A) (A) (A) (A) (A) (A) (A)
                 (A) (A) (A) (A) (A) (A) (A) (A) (A) (A) (A) (A)
                 (A) (A) (A) (A) (A) (A) (A) (A) (A) (A) (A) (A)
                 (A) (A) (A) (A) (A) (A) (A) (A) (A) (A) (A) (A)
                 (A) (A) (A) (A) (A) (A) (A) (A) (A) (A) (A) (A)
                 (A) (A) (A) (A) (A) (A) (A) (A) (A) (A) (A) (A)
                 (A) (A) (A) (A) (A) (A) (A) (A) (A) (A) (A) (A)
                 (A) (A) (A) (A) (A) (A) (A) (A) (A) (A) (A) (A)
                 (A) (A) (A) (A) (A) (A) (A) (A) (A) (A) (A) (A)
                 (A) (A) (A) (A) (A) (A) (A) (A) (A) (A) (A) (A)
                 (A) (A) (A) (A) (A) (A) (A) (A) (A) (A) (A) (A)
                 (A) (A) (A) (A) (A) (A) (A) (A) (A) (A) (A) (A)
                 (A) (A) (A) (A) (A) (A) (A) (A) (A) (A) (A) (A)
                 (A) (A) (A) (A) (A) (A) (A) (A) (A) (A) (A) (A)
                 (A) (A) (A) (A) (A) (A) (A) (A) (A) (A) (A) (A)
                 (A) (A) (A) (A) (A) (A) (A) (A) (A) (A) (A) (A)
                 (A) (A) (A) (A) (A) (A) (A) (A) (A) (A) (A) (A)
                 (A) (A) (A) (A) (A) (A) (A) (A) (A) (A) (A) (A)
                 (A) (A) (A) (A) (A) (A) (A) (A) (A) (A) (A) (A)
                 (A) (A) (A) (A) (A) (A) (A) (A) (A) (A) (A) (A)
                 (A) (A) (A) (A) (A) (A) (A) (A) (A) (A) (A) (A)
                 (A) (A) (A) (A) (A) (A) (A) (A) (A) (A) (A) (A)
                 (A) (A) (A) (A) (A) (A) (A) (A) (A) (A) (A) (A)
                 (A) (A) (A) (A) (A) (A) (A) (A) (A) (A) (A) (A)
                 (A) (A) (A) (A) (A) (A) (A) (A) (A) (A) (A) (A)
                 (A) (A) (A) (A) (A) (A) (A) (A) (A) (A) (A) (A)
                 (A) (A) (A) (A) (A) (A) (A) (A) (A) (A) (A) (A)
                 (A) (A) (A) (A) (A) (A) (A) (A) (A) (A) (A) (A)
                 (A) (A) (A) (A) (A) (A) (A) (A) (A) (A) (A) (A)
                 (A) (A) (A) (A) (A) (A) (A) (A) (A) (A) (A) (A)
                 (A) (A) (A) (A) (A) (A) (A) (A) (A) (A) (A) (A)
                 (A) (A) (A) (A) (A) (A) (A) (A) (A) (A) (A) (A)
                 (A) (A) (A) (A) (A) (A) (A) (A) (A) (A) (A) (A)
                 (A) (A) (A) (A) (A) (A) (A) (A) (A) (A) (A) (A)
                 (A) (A) (A) (A) (A) (A) (A) (A) (A) (A) (A) (A)
                 (A) (A) (A) (A) (A) (A) (A) (A) (A) (A) (A) (A)
                 (A) (A) (A) (A) (A) (A) (A) (A) (A) (A) (A) (A)
                 (A) (A) (A) (A) (A) (A) (A) (A) (A) (A) (A) (A)
                 (A) (A) (A) (A) (A) (A) (A) (A) (A) (A) (A) (A)
                 (A) (A) (A) (A) (A) (A) (A) (A) (A) (A) (A) (A)
                 (A) (A) (A) (A) (A) (A) (A) (A) (A) (A) (A) (A)
                 (A) (A) (A) (A) (A) (A) (A) (A) (A) (A) (A) (A)
                 (A) (A) (A) (A) (A) (A) (A) (A) (A) (A) (A) (A)
                 (A) (A) (A) (A) (A) (A) (A) (A) (A) (A) (A) (A)
                 (A) (A) (A) (A) (A) (A) (A) (A) (A) (A) (A) (A)
                 (A) (A) (A) (A) (A) (A) (A) (A) (A) (A) (A) (A)
                 (A) (A) (A) (A) (A) (A) (A) (A) (A) (A) (A) (A)
                 (A) (A) (A) (A) (A) (A) (A) (A) (A) (A) (A) (A)
                 (A) (A) (A) (A) (A) (A) (A) (A) (A) (A) (A) (A)
                 (A) (A) (A) (A) (A) (A) (A) (A) (A) (A) (A) (A)
                 (A) (A) (A) (A) (A) (A) (A) (A) (A) (A) (A) (A)
                 (A) (A) (A) (A) (A) (A) (A) (A) (A) (A) (A) (A)
                 (A) (A) (A) (A) (A) (A) (A) (A) (A) (A) (A) (A)
                 (A) (A) (A) (A) (A) (A) (A) (A) (A) (A) (A) (A)
                 (A) (A) (A) (A) (A) (A) (A) (A) (A) (A) (A) (A)
                 (A) (A) (A) (A) (A) (A) (A) (A) (A) (A) (A) (A)
                 (A) (A) (A) (A) (A) (A) (A) (A) (A) (A) (A) (A)
                 (A) (A) (A) (A) (A) (A) (A) (A) (A) (A) (A) (A)
                 (A) (A) (A) (A) (A) (A) (A) (A) (A) (A) (A) (A)
                 (A) (A) (A) (A) (A) (A) (A) (A) (A) (A) (A) (A)
                 (A) (A) (A) (A) (A) (A) (A) (A) (A) (A) (A) (A)
                 (A) (A) (A) (A) (A) (A) (A) (A) (A) (A) (A) (A)
                 (A) (A) (A) (A) (A) (A) (A) (A) (A) (A) (A) (A)
                 (A) (A) (A) (A) (A) (A) (A) (A) (A) (A) (A) (A)
                 (A) (A) (A) (A) (A) (A) (A) (A) (A) (A) (A) (A)
                 (A) (A) (A) (A) (A) (A) (A) (A) (A) (A) (A) (A)
                 (A) (A) (A) (A) (A) (A) (A) (A) (A) (A) (A) (A)
                 (A) (A) (A) (A) (A) (A) (A) (A) (A) (A) (A) (A)
                 (A) (A) (A) (A) (A) (A) (A) (A) (A) (A) (A) (A)
                 (A) (A) (A) (A) (A) (A) (A) (A) (A) (A) (A) (A)
                 (A) (A) (A) (A) (A) (A) (A) (A) (A) (A) (A) (A)
                 (A) (A) (A) (A) (A) (A) (A) (A) (A) (A) (A) (A)
                 (A) (A) (A) (A) (A) (A) (A) (A) (A) (A) (A) (A)
                 (A) (A) (A) (A) (A) (A) (A) (A) (A) (A) (A) (A)
                 (A) (A) (A) (A) (A) (A) (A) (A) (A) (A) (A) (A)
                 (A) (A) (A) (A) (A) (A) (A) (A) (A) (A) (A) (A)
                 (A) (A) (A) (A) (A) (A) (A) (A) (A) (A) (A) (A)
                 (A) (A) (A) (A) (A) (A) (A) (A) (A) (A) (A) (A)
                 (A) (A) (A) (A) (A) (A) (A) (A) (A) (A) (A) (A)
                 (A) (A) (A) (A) (A) (A) (A) (A) (A) (A) (A) (A)
                 (A) (A) (A) (A) (A) (A) (A) (A) (A) (A) (A) (A)
                 (A) (A) (A) (A) (A) (A) (A) (A) (A) (A) (A) (A)
                 (A) (A) (A) (A) (A) (A) (A) (A) (A) (A) (A) (A)
                 (A) (A) (A) (A) (A) (A) (A) (A) (A) (A) (A) (A)
                 (A) (A) (A) (A) (A) (A) (A) (A) (A) (A) (A) (A)
                 (A) (A) (A) (A) (A) (A) (A) (A) (A) (A) (A) (A)
                 (A) (A) (A) (A) (A) (A) (A) (A) (A) (A) (A) (A)
                 (A) (A) (A) (A) (A) (A) (A) (A) (A) (A) (A) (A)
                 (A) (A) (A) (A) (A) (A) (A) (A) (A) (A) (A) (A)
                 (A) (A) (A) (A) (A) (A) (A) (A) (A) (A) (A) (A)
                 (A) (A) (A) (A) (A) (A) (A) (A) (A) (A) (A) (A)
                 (A) (A) (A) (A) (A) (A) (A) (A) (A) (A) (A) (A)
                 (A) (A) (A) (A) (A) (A) (A) (A) (A) (A) (A) (A)
                 (A) (A) (A) (A) (A) (A) (A) (A) (A) (A) (A) (A)
                 (A) (A) (A) (A) (A) (A) (A) (A) (A) (A) (A) (A)
                 (A) (A) (A) (A) (A) (A) (A) (A) (A) (A) (A) (A)
                 (A) (A) (A) (A) (A) (A) (A) (A) (A) (A) (A) (A)
                 (A) (A) (A) (A) (A) (A) (A) (A) (A) (A) (A) (A)
                 (A) (A) (A) (A) (A) (A) (A) (A) (A) (A) (A) (A)
                 (A) (A) (A) (A) (A) (A) (A) (A) (A) (A) (A) (A)
                 (A) (A) (A) (A) (A) (A) (A) (A) (A) (A) (A) (A)
                 (A) (A) (A) (A) (A) (A) (A) (A) (A) (A) (A) (A)
                 (A) (A) (A) (A) (A) (A) (A) (A) (A) (A) (A) (A)
                 (A) (A) (A) (A) (A) (A) (A) (A) (A) (A) (A) (A)
                 (A) (A) (A) (A) (A) (A) (A) (A) (A) (A) (A) (A)
                 (A) (A) (A) (A) (A) (A) (A) (A) (A) (A) (A) (A)
                 (A) (A) (A) (A) (A) (A) (A) (A) (A) (A) (A) (A)
                 (A) (A) (A) (A) (A) (A) (A) (A) (A) (A) (A) (A)
                 (A) (A) (A) (A) (A) (A) (A) (A) (A) (A) (A) (A)
                 (A) (A) (A) (A) (A) (A) (A) (A) (A) (A) (A) (A)
                 (A) (A) (A) (A) (A) (A) (A) (A) (A) (A) (A) (A)
                 (A) (A) (A) (A) (A) (A) (A) (A) (A) (A) (A) (A)
                 (A) (A) (A) (A) (A) (A) (A) (A) (A) (A) (A) (A)
                 (A) (A) (A) (A) (A) (A) (A) (A) (A) (A) (A) (A)
                 (A) (A) (A) (A) (A) (A) (A) (A) (A) (A) (A) (A)
                 (A) (A) (A) (A) (A) (A) (A) (A) (A) (A) (A) (A)
                 (A) (A) (A) (A) (A)
 Beta  Orbitals:
       Occupied  (A) (A) (A) (A) (A) (A) (A) (A) (A) (A) (A) (A)
                 (A) (A) (A) (A) (A) (A) (A) (A) (A) (A) (A) (A)
                 (A) (A) (A) (A) (A) (A) (A) (A) (A) (A) (A) (A)
                 (A) (A) (A) (A) (A) (A) (A) (A) (A) (A) (A) (A)
                 (A) (A) (A) (A) (A) (A) (A) (A) (A) (A) (A) (A)
                 (A) (A) (A) (A) (A) (A) (A) (A) (A) (A) (A) (A)
                 (A) (A) (A) (A) (A) (A) (A) (A) (A) (A) (A) (A)
                 (A) (A) (A) (A) (A) (A) (A) (A) (A) (A) (A) (A)
                 (A) (A) (A) (A) (A) (A) (A) (A) (A) (A) (A) (A)
                 (A) (A) (A) (A) (A) (A) (A) (A) (A) (A) (A) (A)
                 (A) (A) (A) (A) (A) (A) (A) (A) (A) (A) (A) (A)
                 (A) (A) (A) (A) (A) (A) (A) (A) (A) (A) (A) (A)
                 (A) (A) (A) (A) (A) (A) (A) (A) (A) (A) (A) (A)
                 (A) (A) (A) (A) (A) (A) (A) (A) (A) (A) (A) (A)
                 (A) (A) (A) (A) (A) (A) (A) (A) (A) (A) (A) (A)
                 (A) (A) (A) (A) (A) (A) (A) (A) (A) (A) (A) (A)
                 (A) (A) (A) (A) (A) (A) (A) (A) (A)
       Virtual   (A) (A) (A) (A) (A) (A) (A) (A) (A) (A) (A) (A)
                 (A) (A) (A) (A) (A) (A) (A) (A) (A) (A) (A) (A)
                 (A) (A) (A) (A) (A) (A) (A) (A) (A) (A) (A) (A)
                 (A) (A) (A) (A) (A) (A) (A) (A) (A) (A) (A) (A)
                 (A) (A) (A) (A) (A) (A) (A) (A) (A) (A) (A) (A)
                 (A) (A) (A) (A) (A) (A) (A) (A) (A) (A) (A) (A)
                 (A) (A) (A) (A) (A) (A) (A) (A) (A) (A) (A) (A)
                 (A) (A) (A) (A) (A) (A) (A) (A) (A) (A) (A) (A)
                 (A) (A) (A) (A) (A) (A) (A) (A) (A) (A) (A) (A)
                 (A) (A) (A) (A) (A) (A) (A) (A) (A) (A) (A) (A)
                 (A) (A) (A) (A) (A) (A) (A) (A) (A) (A) (A) (A)
                 (A) (A) (A) (A) (A) (A) (A) (A) (A) (A) (A) (A)
                 (A) (A) (A) (A) (A) (A) (A) (A) (A) (A) (A) (A)
                 (A) (A) (A) (A) (A) (A) (A) (A) (A) (A) (A) (A)
                 (A) (A) (A) (A) (A) (A) (A) (A) (A) (A) (A) (A)
                 (A) (A) (A) (A) (A) (A) (A) (A) (A) (A) (A) (A)
                 (A) (A) (A) (A) (A) (A) (A) (A) (A) (A) (A) (A)
                 (A) (A) (A) (A) (A) (A) (A) (A) (A) (A) (A) (A)
                 (A) (A) (A) (A) (A) (A) (A) (A) (A) (A) (A) (A)
                 (A) (A) (A) (A) (A) (A) (A) (A) (A) (A) (A) (A)
                 (A) (A) (A) (A) (A) (A) (A) (A) (A) (A) (A) (A)
                 (A) (A) (A) (A) (A) (A) (A) (A) (A) (A) (A) (A)
                 (A) (A) (A) (A) (A) (A) (A) (A) (A) (A) (A) (A)
                 (A) (A) (A) (A) (A) (A) (A) (A) (A) (A) (A) (A)
                 (A) (A) (A) (A) (A) (A) (A) (A) (A) (A) (A) (A)
                 (A) (A) (A) (A) (A) (A) (A) (A) (A) (A) (A) (A)
                 (A) (A) (A) (A) (A) (A) (A) (A) (A) (A) (A) (A)
                 (A) (A) (A) (A) (A) (A) (A) (A) (A) (A) (A) (A)
                 (A) (A) (A) (A) (A) (A) (A) (A) (A) (A) (A) (A)
                 (A) (A) (A) (A) (A) (A) (A) (A) (A) (A) (A) (A)
                 (A) (A) (A) (A) (A) (A) (A) (A) (A) (A) (A) (A)
                 (A) (A) (A) (A) (A) (A) (A) (A) (A) (A) (A) (A)
                 (A) (A) (A) (A) (A) (A) (A) (A) (A) (A) (A) (A)
                 (A) (A) (A) (A) (A) (A) (A) (A) (A) (A) (A) (A)
                 (A) (A) (A) (A) (A) (A) (A) (A) (A) (A) (A) (A)
                 (A) (A) (A) (A) (A) (A) (A) (A) (A) (A) (A) (A)
                 (A) (A) (A) (A) (A) (A) (A) (A) (A) (A) (A) (A)
                 (A) (A) (A) (A) (A) (A) (A) (A) (A) (A) (A) (A)
                 (A) (A) (A) (A) (A) (A) (A) (A) (A) (A) (A) (A)
                 (A) (A) (A) (A) (A) (A) (A) (A) (A) (A) (A) (A)
                 (A) (A) (A) (A) (A) (A) (A) (A) (A) (A) (A) (A)
                 (A) (A) (A) (A) (A) (A) (A) (A) (A) (A) (A) (A)
                 (A) (A) (A) (A) (A) (A) (A) (A) (A) (A) (A) (A)
                 (A) (A) (A) (A) (A) (A) (A) (A) (A) (A) (A) (A)
                 (A) (A) (A) (A) (A) (A) (A) (A) (A) (A) (A) (A)
                 (A) (A) (A) (A) (A) (A) (A) (A) (A) (A) (A) (A)
                 (A) (A) (A) (A) (A) (A) (A) (A) (A) (A) (A) (A)
                 (A) (A) (A) (A) (A) (A) (A) (A) (A) (A) (A) (A)
                 (A) (A) (A) (A) (A) (A) (A) (A) (A) (A) (A) (A)
                 (A) (A) (A) (A) (A) (A) (A) (A) (A) (A) (A) (A)
                 (A) (A) (A) (A) (A) (A) (A) (A) (A) (A) (A) (A)
                 (A) (A) (A) (A) (A) (A) (A) (A) (A) (A) (A) (A)
                 (A) (A) (A) (A) (A) (A) (A) (A) (A) (A) (A) (A)
                 (A) (A) (A) (A) (A) (A) (A) (A) (A) (A) (A) (A)
                 (A) (A) (A) (A) (A) (A) (A) (A) (A) (A) (A) (A)
                 (A) (A) (A) (A) (A) (A) (A) (A) (A) (A) (A) (A)
                 (A) (A) (A) (A) (A) (A) (A) (A) (A) (A) (A) (A)
                 (A) (A) (A) (A) (A) (A) (A) (A) (A) (A) (A) (A)
                 (A) (A) (A) (A) (A) (A) (A) (A) (A) (A) (A) (A)
                 (A) (A) (A) (A) (A) (A) (A) (A) (A) (A) (A) (A)
                 (A) (A) (A) (A) (A) (A) (A) (A) (A) (A) (A) (A)
                 (A) (A) (A) (A) (A) (A) (A) (A) (A) (A) (A) (A)
                 (A) (A) (A) (A) (A) (A) (A) (A) (A) (A) (A) (A)
                 (A) (A) (A) (A) (A) (A) (A) (A) (A) (A) (A) (A)
                 (A) (A) (A) (A) (A) (A) (A) (A) (A) (A) (A) (A)
                 (A) (A) (A) (A) (A) (A) (A) (A) (A) (A) (A) (A)
                 (A) (A) (A) (A) (A) (A) (A) (A) (A) (A) (A) (A)
                 (A) (A) (A) (A) (A) (A) (A) (A) (A) (A) (A) (A)
                 (A) (A) (A) (A) (A) (A) (A) (A) (A) (A) (A) (A)
                 (A) (A) (A) (A) (A) (A) (A) (A) (A) (A) (A) (A)
                 (A) (A) (A) (A) (A) (A) (A) (A) (A) (A) (A) (A)
                 (A) (A) (A) (A) (A) (A) (A) (A) (A) (A) (A) (A)
                 (A) (A) (A) (A) (A) (A) (A) (A) (A) (A) (A) (A)
                 (A) (A) (A) (A) (A) (A) (A) (A) (A) (A) (A) (A)
                 (A) (A) (A) (A) (A) (A) (A) (A) (A) (A) (A) (A)
                 (A) (A) (A) (A) (A) (A) (A) (A) (A) (A) (A) (A)
                 (A) (A) (A) (A) (A) (A) (A) (A) (A) (A) (A) (A)
                 (A) (A) (A) (A) (A) (A) (A) (A) (A) (A) (A) (A)
                 (A) (A) (A) (A) (A) (A) (A) (A) (A) (A) (A) (A)
                 (A) (A) (A) (A) (A) (A) (A) (A) (A) (A) (A) (A)
                 (A) (A) (A) (A) (A) (A) (A) (A) (A) (A) (A) (A)
                 (A) (A) (A) (A) (A) (A) (A) (A) (A) (A) (A) (A)
                 (A) (A) (A) (A) (A) (A) (A) (A) (A) (A) (A) (A)
                 (A) (A) (A) (A) (A) (A) (A) (A) (A) (A) (A) (A)
                 (A) (A) (A) (A) (A) (A) (A) (A) (A) (A) (A) (A)
                 (A) (A) (A) (A) (A) (A) (A) (A) (A) (A) (A) (A)
                 (A) (A) (A) (A) (A) (A) (A) (A) (A) (A) (A) (A)
                 (A) (A) (A) (A) (A) (A) (A) (A) (A) (A) (A) (A)
                 (A) (A) (A) (A) (A) (A) (A) (A) (A) (A) (A) (A)
                 (A) (A) (A) (A) (A) (A) (A) (A) (A) (A) (A) (A)
                 (A) (A) (A) (A) (A) (A) (A) (A) (A) (A) (A) (A)
                 (A) (A) (A) (A) (A) (A) (A) (A) (A) (A) (A) (A)
                 (A) (A) (A) (A) (A) (A) (A) (A) (A) (A) (A) (A)
                 (A) (A) (A) (A) (A) (A) (A) (A) (A) (A) (A) (A)
                 (A) (A) (A) (A) (A) (A) (A) (A) (A) (A) (A) (A)
                 (A) (A) (A) (A) (A) (A) (A) (A) (A) (A) (A) (A)
                 (A) (A) (A) (A) (A) (A) (A) (A) (A) (A) (A) (A)
                 (A) (A) (A) (A) (A) (A) (A) (A) (A) (A) (A) (A)
                 (A) (A) (A) (A) (A) (A) (A) (A) (A) (A) (A) (A)
                 (A) (A) (A) (A) (A) (A) (A) (A) (A) (A) (A) (A)
                 (A) (A) (A) (A) (A) (A) (A) (A) (A) (A) (A) (A)
                 (A) (A) (A) (A) (A) (A) (A) (A) (A) (A) (A) (A)
                 (A) (A) (A) (A) (A) (A) (A) (A) (A) (A) (A) (A)
                 (A) (A) (A) (A) (A) (A) (A) (A) (A) (A) (A) (A)
                 (A) (A) (A) (A) (A) (A) (A) (A) (A) (A) (A) (A)
                 (A) (A) (A) (A) (A) (A) (A) (A) (A) (A) (A) (A)
                 (A) (A) (A) (A) (A) (A) (A) (A) (A) (A) (A) (A)
                 (A) (A) (A) (A) (A) (A) (A) (A) (A) (A) (A) (A)
                 (A) (A) (A) (A) (A) (A) (A) (A) (A) (A) (A) (A)
                 (A) (A) (A) (A) (A) (A) (A) (A) (A) (A) (A) (A)
                 (A) (A) (A) (A) (A) (A) (A) (A) (A) (A) (A) (A)
                 (A) (A) (A) (A) (A) (A) (A) (A) (A) (A) (A) (A)
                 (A) (A) (A) (A) (A) (A) (A) (A) (A) (A) (A) (A)
                 (A) (A) (A) (A) (A) (A) (A) (A) (A) (A) (A) (A)
                 (A) (A) (A) (A) (A) (A) (A) (A) (A) (A) (A) (A)
                 (A) (A) (A) (A) (A) (A) (A) (A) (A) (A) (A) (A)
                 (A) (A) (A) (A) (A) (A) (A) (A) (A) (A) (A) (A)
                 (A) (A) (A) (A) (A) (A) (A) (A) (A) (A) (A) (A)
                 (A) (A) (A) (A) (A) (A) (A) (A) (A) (A) (A) (A)
                 (A) (A) (A) (A) (A) (A) (A) (A) (A) (A) (A) (A)
                 (A) (A) (A) (A) (A) (A) (A) (A) (A) (A) (A) (A)
                 (A) (A) (A) (A) (A) (A) (A) (A) (A) (A) (A) (A)
                 (A) (A) (A) (A) (A) (A) (A) (A) (A) (A) (A) (A)
                 (A) (A) (A) (A) (A) (A) (A) (A) (A) (A) (A) (A)
                 (A) (A) (A) (A) (A) (A) (A) (A) (A) (A) (A) (A)
                 (A) (A) (A) (A) (A) (A) (A) (A) (A) (A) (A) (A)
                 (A) (A) (A) (A) (A) (A) (A) (A) (A) (A) (A) (A)
                 (A) (A) (A) (A) (A) (A) (A) (A) (A) (A) (A) (A)
                 (A) (A) (A) (A) (A) (A) (A) (A) (A) (A) (A) (A)
                 (A) (A) (A) (A) (A) (A) (A) (A) (A) (A) (A) (A)
                 (A) (A) (A) (A) (A) (A) (A) (A) (A) (A) (A) (A)
                 (A) (A) (A) (A) (A) (A) (A) (A) (A) (A) (A) (A)
                 (A) (A) (A) (A) (A) (A) (A) (A) (A) (A) (A) (A)
                 (A) (A) (A) (A) (A) (A) (A) (A) (A) (A) (A) (A)
                 (A) (A) (A) (A) (A) (A) (A) (A) (A) (A) (A) (A)
                 (A) (A) (A) (A) (A) (A) (A) (A) (A) (A) (A) (A)
                 (A) (A) (A) (A) (A) (A) (A) (A) (A) (A) (A) (A)
                 (A) (A) (A) (A) (A) (A) (A) (A) (A) (A) (A) (A)
                 (A) (A) (A) (A) (A) (A) (A) (A) (A) (A) (A) (A)
                 (A) (A) (A) (A) (A) (A) (A) (A) (A) (A) (A) (A)
                 (A) (A) (A) (A) (A) (A) (A) (A) (A) (A) (A) (A)
                 (A) (A) (A) (A) (A) (A) (A) (A) (A) (A) (A) (A)
                 (A) (A) (A) (A) (A) (A) (A) (A) (A) (A) (A) (A)
                 (A) (A) (A) (A) (A) (A) (A) (A) (A) (A) (A) (A)
                 (A) (A) (A) (A) (A) (A) (A) (A) (A) (A)
 The electronic state is 6-A.
 Alpha  occ. eigenvalues -- -256.37752 -89.04366 -30.17129 -25.99921 -25.99728
 Alpha  occ. eigenvalues --  -25.98208 -19.27627 -19.26171 -19.20202 -19.19666
 Alpha  occ. eigenvalues --  -14.46120 -14.42506 -14.41114 -14.40983 -14.39650
 Alpha  occ. eigenvalues --  -14.39065 -10.36968 -10.36653 -10.30959 -10.30292
 Alpha  occ. eigenvalues --  -10.28608 -10.28197 -10.28047 -10.27929 -10.27862
 Alpha  occ. eigenvalues --  -10.27608 -10.27591 -10.27515 -10.27449 -10.27439
 Alpha  occ. eigenvalues --  -10.26726 -10.26238 -10.26230 -10.26192 -10.26004
 Alpha  occ. eigenvalues --  -10.25415 -10.25327 -10.25182 -10.25164 -10.25131
 Alpha  occ. eigenvalues --  -10.24960 -10.24848 -10.23938 -10.23696 -10.23675
 Alpha  occ. eigenvalues --  -10.23587 -10.23556 -10.23425 -10.23395 -10.23321
 Alpha  occ. eigenvalues --  -10.23270 -10.23172 -10.23116 -10.22408 -10.22339
 Alpha  occ. eigenvalues --  -10.22118 -10.21477  -8.02224  -5.95888  -5.95584
 Alpha  occ. eigenvalues --   -5.95044  -3.55608  -2.33485  -2.32303  -2.28581
 Alpha  occ. eigenvalues --   -1.18301  -1.17263  -1.07355  -1.05277  -1.04353
 Alpha  occ. eigenvalues --   -1.02144  -1.01277  -1.00943  -1.00016  -0.92651
 Alpha  occ. eigenvalues --   -0.87031  -0.86076  -0.85625  -0.85345  -0.84960
 Alpha  occ. eigenvalues --   -0.84584  -0.84391  -0.83861  -0.81901  -0.81172
 Alpha  occ. eigenvalues --   -0.80338  -0.79726  -0.78805  -0.78647  -0.78035
 Alpha  occ. eigenvalues --   -0.76597  -0.74718  -0.73932  -0.73767  -0.73317
 Alpha  occ. eigenvalues --   -0.71613  -0.70767  -0.70636  -0.69042  -0.68628
 Alpha  occ. eigenvalues --   -0.68537  -0.67916  -0.66421  -0.66201  -0.65990
 Alpha  occ. eigenvalues --   -0.64997  -0.63647  -0.62081  -0.61881  -0.61702
 Alpha  occ. eigenvalues --   -0.58663  -0.57908  -0.57879  -0.57544  -0.56558
 Alpha  occ. eigenvalues --   -0.55786  -0.55123  -0.54927  -0.54217  -0.53757
 Alpha  occ. eigenvalues --   -0.52466  -0.52226  -0.51699  -0.51219  -0.50658
 Alpha  occ. eigenvalues --   -0.50344  -0.49789  -0.49581  -0.49403  -0.49201
 Alpha  occ. eigenvalues --   -0.48910  -0.48371  -0.48177  -0.47853  -0.47788
 Alpha  occ. eigenvalues --   -0.47535  -0.47010  -0.46865  -0.46595  -0.46556
 Alpha  occ. eigenvalues --   -0.46002  -0.45885  -0.45723  -0.45618  -0.45449
 Alpha  occ. eigenvalues --   -0.45350  -0.44874  -0.44589  -0.44411  -0.44090
 Alpha  occ. eigenvalues --   -0.43825  -0.43507  -0.43422  -0.43271  -0.43029
 Alpha  occ. eigenvalues --   -0.42762  -0.42646  -0.42629  -0.42400  -0.42178
 Alpha  occ. eigenvalues --   -0.41857  -0.41515  -0.41380  -0.40828  -0.40446
 Alpha  occ. eigenvalues --   -0.40405  -0.40022  -0.39883  -0.39617  -0.39190
 Alpha  occ. eigenvalues --   -0.38852  -0.38594  -0.38434  -0.38085  -0.37410
 Alpha  occ. eigenvalues --   -0.37210  -0.37047  -0.36431  -0.36007  -0.35820
 Alpha  occ. eigenvalues --   -0.35603  -0.35170  -0.34910  -0.34675  -0.34031
 Alpha  occ. eigenvalues --   -0.33915  -0.33418  -0.32955  -0.32790  -0.31912
 Alpha  occ. eigenvalues --   -0.31424  -0.30685  -0.29563  -0.29462  -0.29315
 Alpha  occ. eigenvalues --   -0.29027  -0.26531  -0.26241  -0.25788  -0.24974
 Alpha  occ. eigenvalues --   -0.24873  -0.24770  -0.22929  -0.22211  -0.19731
 Alpha  occ. eigenvalues --   -0.18486
 Alpha virt. eigenvalues --   -0.14567  -0.09561  -0.09362  -0.06506  -0.03214
 Alpha virt. eigenvalues --   -0.01738  -0.01617  -0.00152   0.01284   0.01824
 Alpha virt. eigenvalues --    0.02239   0.02659   0.02882   0.03364   0.03783
 Alpha virt. eigenvalues --    0.04058   0.04323   0.04753   0.04822   0.05191
 Alpha virt. eigenvalues --    0.05446   0.05746   0.06015   0.06322   0.06540
 Alpha virt. eigenvalues --    0.06702   0.06880   0.07013   0.07457   0.07532
 Alpha virt. eigenvalues --    0.07666   0.07975   0.08765   0.08780   0.08933
 Alpha virt. eigenvalues --    0.09342   0.09644   0.09747   0.09971   0.10365
 Alpha virt. eigenvalues --    0.10429   0.10676   0.10887   0.11159   0.11370
 Alpha virt. eigenvalues --    0.11732   0.12002   0.12078   0.12170   0.12400
 Alpha virt. eigenvalues --    0.12426   0.12604   0.12645   0.12938   0.13295
 Alpha virt. eigenvalues --    0.13400   0.13581   0.13722   0.14053   0.14092
 Alpha virt. eigenvalues --    0.14326   0.14367   0.14791   0.15016   0.15175
 Alpha virt. eigenvalues --    0.15269   0.15464   0.15499   0.15586   0.15828
 Alpha virt. eigenvalues --    0.16412   0.16668   0.16925   0.17149   0.17246
 Alpha virt. eigenvalues --    0.17486   0.17611   0.17676   0.18116   0.18204
 Alpha virt. eigenvalues --    0.18435   0.18618   0.18833   0.18980   0.19188
 Alpha virt. eigenvalues --    0.19306   0.19566   0.19674   0.20055   0.20170
 Alpha virt. eigenvalues --    0.20271   0.20637   0.20912   0.21261   0.21318
 Alpha virt. eigenvalues --    0.21739   0.21786   0.21853   0.22147   0.22473
 Alpha virt. eigenvalues --    0.22646   0.22751   0.23006   0.23207   0.23292
 Alpha virt. eigenvalues --    0.23509   0.23665   0.23941   0.24151   0.24219
 Alpha virt. eigenvalues --    0.24282   0.24590   0.24812   0.25296   0.25578
 Alpha virt. eigenvalues --    0.25655   0.25689   0.25860   0.26298   0.26408
 Alpha virt. eigenvalues --    0.26819   0.26929   0.27231   0.27423   0.27495
 Alpha virt. eigenvalues --    0.27855   0.28030   0.28362   0.28527   0.28699
 Alpha virt. eigenvalues --    0.28741   0.28918   0.29298   0.29394   0.29756
 Alpha virt. eigenvalues --    0.29832   0.30006   0.30507   0.30692   0.30887
 Alpha virt. eigenvalues --    0.30964   0.31040   0.31217   0.31403   0.31633
 Alpha virt. eigenvalues --    0.32066   0.32360   0.32451   0.32670   0.32934
 Alpha virt. eigenvalues --    0.33287   0.33409   0.33535   0.33896   0.34269
 Alpha virt. eigenvalues --    0.34549   0.34929   0.35026   0.35139   0.35280
 Alpha virt. eigenvalues --    0.35528   0.35630   0.35978   0.36178   0.36413
 Alpha virt. eigenvalues --    0.36633   0.36764   0.36857   0.37031   0.37217
 Alpha virt. eigenvalues --    0.37527   0.37761   0.37943   0.38160   0.38290
 Alpha virt. eigenvalues --    0.38349   0.38542   0.38701   0.38979   0.39142
 Alpha virt. eigenvalues --    0.39563   0.39629   0.39848   0.40008   0.40303
 Alpha virt. eigenvalues --    0.40364   0.40749   0.40861   0.40922   0.41213
 Alpha virt. eigenvalues --    0.41260   0.41657   0.41724   0.41755   0.41957
 Alpha virt. eigenvalues --    0.42171   0.42394   0.42542   0.42767   0.43074
 Alpha virt. eigenvalues --    0.43172   0.43302   0.43458   0.43529   0.43837
 Alpha virt. eigenvalues --    0.43894   0.44069   0.44317   0.44432   0.44672
 Alpha virt. eigenvalues --    0.44917   0.44961   0.45119   0.45267   0.45490
 Alpha virt. eigenvalues --    0.45667   0.45817   0.45952   0.46242   0.46472
 Alpha virt. eigenvalues --    0.46630   0.46822   0.46866   0.47099   0.47243
 Alpha virt. eigenvalues --    0.47292   0.47587   0.47816   0.47937   0.48204
 Alpha virt. eigenvalues --    0.48247   0.48411   0.48579   0.48840   0.49028
 Alpha virt. eigenvalues --    0.49225   0.49312   0.49382   0.49637   0.49850
 Alpha virt. eigenvalues --    0.50019   0.50129   0.50195   0.50671   0.50744
 Alpha virt. eigenvalues --    0.50866   0.50925   0.51117   0.51341   0.51699
 Alpha virt. eigenvalues --    0.51790   0.52110   0.52301   0.52532   0.52701
 Alpha virt. eigenvalues --    0.52830   0.52907   0.53212   0.53374   0.53554
 Alpha virt. eigenvalues --    0.53771   0.54073   0.54266   0.54420   0.54677
 Alpha virt. eigenvalues --    0.55072   0.55141   0.55612   0.55740   0.55963
 Alpha virt. eigenvalues --    0.56045   0.56591   0.56705   0.56905   0.57159
 Alpha virt. eigenvalues --    0.57354   0.57593   0.57682   0.57949   0.58071
 Alpha virt. eigenvalues --    0.58364   0.58462   0.58797   0.58880   0.59205
 Alpha virt. eigenvalues --    0.59451   0.59643   0.60229   0.60358   0.60419
 Alpha virt. eigenvalues --    0.60553   0.60693   0.61033   0.61216   0.61504
 Alpha virt. eigenvalues --    0.61735   0.61965   0.62193   0.62439   0.62845
 Alpha virt. eigenvalues --    0.63126   0.63171   0.63642   0.63743   0.64157
 Alpha virt. eigenvalues --    0.64586   0.64779   0.64996   0.65197   0.65399
 Alpha virt. eigenvalues --    0.65818   0.65895   0.66223   0.66447   0.66861
 Alpha virt. eigenvalues --    0.67098   0.67523   0.67690   0.67827   0.67970
 Alpha virt. eigenvalues --    0.68459   0.68609   0.68714   0.69005   0.69081
 Alpha virt. eigenvalues --    0.69579   0.69814   0.69950   0.70587   0.70801
 Alpha virt. eigenvalues --    0.71087   0.71204   0.71309   0.71517   0.72299
 Alpha virt. eigenvalues --    0.72471   0.72715   0.72753   0.73133   0.73525
 Alpha virt. eigenvalues --    0.73616   0.73870   0.74024   0.74524   0.74682
 Alpha virt. eigenvalues --    0.75123   0.75543   0.75910   0.76011   0.76368
 Alpha virt. eigenvalues --    0.76677   0.76840   0.77048   0.77108   0.77625
 Alpha virt. eigenvalues --    0.77725   0.78244   0.78392   0.78481   0.78704
 Alpha virt. eigenvalues --    0.79283   0.79580   0.79864   0.80443   0.80458
 Alpha virt. eigenvalues --    0.80800   0.80939   0.81089   0.81397   0.81823
 Alpha virt. eigenvalues --    0.82081   0.82477   0.82560   0.83222   0.83295
 Alpha virt. eigenvalues --    0.83439   0.83922   0.84322   0.84779   0.84851
 Alpha virt. eigenvalues --    0.85418   0.85676   0.85806   0.86076   0.86232
 Alpha virt. eigenvalues --    0.86527   0.86840   0.87017   0.87364   0.87663
 Alpha virt. eigenvalues --    0.88113   0.88276   0.88405   0.88493   0.89080
 Alpha virt. eigenvalues --    0.89385   0.89768   0.89873   0.90017   0.90216
 Alpha virt. eigenvalues --    0.90524   0.91085   0.91175   0.91244   0.91529
 Alpha virt. eigenvalues --    0.91780   0.92051   0.92404   0.92807   0.93085
 Alpha virt. eigenvalues --    0.93574   0.93667   0.94060   0.94445   0.94580
 Alpha virt. eigenvalues --    0.94748   0.94966   0.95090   0.95467   0.95790
 Alpha virt. eigenvalues --    0.95891   0.96441   0.96674   0.97052   0.97167
 Alpha virt. eigenvalues --    0.97330   0.97597   0.97790   0.98164   0.98574
 Alpha virt. eigenvalues --    0.98996   0.99116   0.99522   0.99950   1.00285
 Alpha virt. eigenvalues --    1.00626   1.00781   1.01090   1.01403   1.01486
 Alpha virt. eigenvalues --    1.01895   1.02049   1.02242   1.02571   1.02625
 Alpha virt. eigenvalues --    1.02923   1.03137   1.03631   1.03992   1.04066
 Alpha virt. eigenvalues --    1.04477   1.04585   1.04914   1.05242   1.05488
 Alpha virt. eigenvalues --    1.05905   1.06024   1.06516   1.06795   1.06903
 Alpha virt. eigenvalues --    1.07136   1.07463   1.07947   1.08199   1.08514
 Alpha virt. eigenvalues --    1.08653   1.09154   1.09542   1.09774   1.10017
 Alpha virt. eigenvalues --    1.10276   1.10577   1.10961   1.11156   1.11228
 Alpha virt. eigenvalues --    1.11818   1.12329   1.12455   1.12585   1.12912
 Alpha virt. eigenvalues --    1.13728   1.14036   1.14446   1.14738   1.14819
 Alpha virt. eigenvalues --    1.15375   1.16043   1.16210   1.16377   1.16554
 Alpha virt. eigenvalues --    1.16743   1.17433   1.17587   1.17872   1.18073
 Alpha virt. eigenvalues --    1.18402   1.18670   1.19037   1.19118   1.19569
 Alpha virt. eigenvalues --    1.19981   1.20076   1.20739   1.21244   1.21742
 Alpha virt. eigenvalues --    1.22018   1.22293   1.22688   1.22998   1.23115
 Alpha virt. eigenvalues --    1.23708   1.24185   1.24303   1.24416   1.24616
 Alpha virt. eigenvalues --    1.24854   1.25416   1.25583   1.25703   1.26015
 Alpha virt. eigenvalues --    1.26713   1.27091   1.27517   1.28307   1.28366
 Alpha virt. eigenvalues --    1.28718   1.28857   1.29389   1.29549   1.30026
 Alpha virt. eigenvalues --    1.30122   1.30347   1.30820   1.30935   1.31425
 Alpha virt. eigenvalues --    1.31673   1.32070   1.32649   1.33014   1.33559
 Alpha virt. eigenvalues --    1.33808   1.34262   1.34540   1.35142   1.35332
 Alpha virt. eigenvalues --    1.35712   1.36031   1.36818   1.37028   1.37459
 Alpha virt. eigenvalues --    1.37775   1.38077   1.38502   1.38623   1.39035
 Alpha virt. eigenvalues --    1.39759   1.39954   1.40036   1.40678   1.40906
 Alpha virt. eigenvalues --    1.41288   1.41672   1.41907   1.42250   1.42357
 Alpha virt. eigenvalues --    1.42997   1.43805   1.43900   1.44086   1.44679
 Alpha virt. eigenvalues --    1.45036   1.45355   1.45640   1.46123   1.46334
 Alpha virt. eigenvalues --    1.46565   1.46903   1.47060   1.47488   1.47840
 Alpha virt. eigenvalues --    1.48124   1.48684   1.48875   1.49128   1.49637
 Alpha virt. eigenvalues --    1.50027   1.50481   1.50527   1.50823   1.51104
 Alpha virt. eigenvalues --    1.51619   1.51814   1.52089   1.52369   1.53030
 Alpha virt. eigenvalues --    1.53465   1.53619   1.53894   1.53959   1.54170
 Alpha virt. eigenvalues --    1.54430   1.54575   1.54901   1.55090   1.55415
 Alpha virt. eigenvalues --    1.55566   1.56081   1.56300   1.56438   1.56834
 Alpha virt. eigenvalues --    1.57027   1.57187   1.57275   1.57729   1.58192
 Alpha virt. eigenvalues --    1.58320   1.58440   1.58738   1.59042   1.59277
 Alpha virt. eigenvalues --    1.59662   1.59697   1.60031   1.60117   1.60311
 Alpha virt. eigenvalues --    1.60616   1.60773   1.61110   1.61331   1.61496
 Alpha virt. eigenvalues --    1.61606   1.62097   1.62220   1.62329   1.62511
 Alpha virt. eigenvalues --    1.62921   1.63187   1.63437   1.63655   1.63944
 Alpha virt. eigenvalues --    1.64254   1.64473   1.64801   1.64943   1.65465
 Alpha virt. eigenvalues --    1.65874   1.66017   1.66440   1.66495   1.66713
 Alpha virt. eigenvalues --    1.66948   1.67531   1.67640   1.67891   1.68035
 Alpha virt. eigenvalues --    1.68587   1.68800   1.68976   1.69210   1.69758
 Alpha virt. eigenvalues --    1.69942   1.70273   1.70759   1.70965   1.71255
 Alpha virt. eigenvalues --    1.71318   1.71514   1.71961   1.72678   1.72922
 Alpha virt. eigenvalues --    1.73437   1.73585   1.73882   1.74138   1.74353
 Alpha virt. eigenvalues --    1.74602   1.74791   1.74948   1.75405   1.75951
 Alpha virt. eigenvalues --    1.76162   1.76840   1.76996   1.77305   1.77625
 Alpha virt. eigenvalues --    1.78128   1.78405   1.78985   1.79235   1.79776
 Alpha virt. eigenvalues --    1.79953   1.80086   1.80419   1.80982   1.81341
 Alpha virt. eigenvalues --    1.81610   1.81900   1.82500   1.82534   1.82904
 Alpha virt. eigenvalues --    1.83228   1.83570   1.83749   1.84048   1.84230
 Alpha virt. eigenvalues --    1.84251   1.84607   1.85258   1.85332   1.85767
 Alpha virt. eigenvalues --    1.85984   1.86393   1.86690   1.87208   1.87360
 Alpha virt. eigenvalues --    1.87895   1.88085   1.88174   1.88832   1.89244
 Alpha virt. eigenvalues --    1.89484   1.89671   1.89895   1.90059   1.90974
 Alpha virt. eigenvalues --    1.91106   1.91279   1.91807   1.92168   1.92688
 Alpha virt. eigenvalues --    1.93381   1.93692   1.93829   1.93976   1.94407
 Alpha virt. eigenvalues --    1.94492   1.94841   1.95339   1.95789   1.95910
 Alpha virt. eigenvalues --    1.96167   1.96355   1.96546   1.96781   1.97720
 Alpha virt. eigenvalues --    1.98086   1.98664   1.98860   1.99050   1.99502
 Alpha virt. eigenvalues --    1.99758   2.00176   2.00391   2.00679   2.01002
 Alpha virt. eigenvalues --    2.01468   2.01806   2.01861   2.02171   2.02347
 Alpha virt. eigenvalues --    2.02771   2.03144   2.03683   2.03962   2.04025
 Alpha virt. eigenvalues --    2.04564   2.04771   2.05008   2.05198   2.05821
 Alpha virt. eigenvalues --    2.06074   2.06317   2.06923   2.07235   2.07699
 Alpha virt. eigenvalues --    2.07983   2.08118   2.08242   2.08788   2.09108
 Alpha virt. eigenvalues --    2.09264   2.09438   2.10333   2.10689   2.10824
 Alpha virt. eigenvalues --    2.11286   2.11336   2.11919   2.12172   2.12436
 Alpha virt. eigenvalues --    2.12932   2.13345   2.13564   2.13783   2.14084
 Alpha virt. eigenvalues --    2.14327   2.14605   2.14944   2.15358   2.15674
 Alpha virt. eigenvalues --    2.16018   2.16608   2.16981   2.17509   2.17682
 Alpha virt. eigenvalues --    2.17791   2.18639   2.19029   2.19183   2.19768
 Alpha virt. eigenvalues --    2.19969   2.20332   2.20893   2.21196   2.21268
 Alpha virt. eigenvalues --    2.21690   2.21927   2.22470   2.22644   2.23113
 Alpha virt. eigenvalues --    2.23557   2.23789   2.24055   2.24102   2.24323
 Alpha virt. eigenvalues --    2.25031   2.25767   2.25875   2.26320   2.26708
 Alpha virt. eigenvalues --    2.26948   2.27485   2.27689   2.27975   2.28354
 Alpha virt. eigenvalues --    2.28645   2.28892   2.29402   2.29740   2.29916
 Alpha virt. eigenvalues --    2.30333   2.31213   2.31370   2.31950   2.32498
 Alpha virt. eigenvalues --    2.32713   2.33140   2.33360   2.33707   2.33922
 Alpha virt. eigenvalues --    2.34125   2.34663   2.35214   2.35351   2.35661
 Alpha virt. eigenvalues --    2.36162   2.36742   2.36972   2.37203   2.37494
 Alpha virt. eigenvalues --    2.37684   2.37959   2.38274   2.38526   2.39005
 Alpha virt. eigenvalues --    2.39307   2.40239   2.40568   2.40751   2.40795
 Alpha virt. eigenvalues --    2.41179   2.41620   2.42026   2.42246   2.42582
 Alpha virt. eigenvalues --    2.43390   2.43459   2.44090   2.44226   2.44606
 Alpha virt. eigenvalues --    2.45048   2.45248   2.45530   2.45778   2.46498
 Alpha virt. eigenvalues --    2.46781   2.46903   2.47290   2.47659   2.47807
 Alpha virt. eigenvalues --    2.48111   2.48923   2.49030   2.49387   2.49793
 Alpha virt. eigenvalues --    2.49980   2.50868   2.51068   2.51415   2.51996
 Alpha virt. eigenvalues --    2.52324   2.52370   2.52636   2.52910   2.53271
 Alpha virt. eigenvalues --    2.53708   2.54190   2.54692   2.54790   2.54912
 Alpha virt. eigenvalues --    2.55356   2.55763   2.55982   2.56131   2.56384
 Alpha virt. eigenvalues --    2.56967   2.57116   2.57209   2.57476   2.57887
 Alpha virt. eigenvalues --    2.58219   2.58357   2.58557   2.58950   2.59019
 Alpha virt. eigenvalues --    2.59179   2.59412   2.60099   2.60147   2.60423
 Alpha virt. eigenvalues --    2.60710   2.61160   2.61531   2.61812   2.62354
 Alpha virt. eigenvalues --    2.62628   2.62993   2.63031   2.63316   2.63835
 Alpha virt. eigenvalues --    2.64059   2.64187   2.64375   2.64753   2.65317
 Alpha virt. eigenvalues --    2.65457   2.65927   2.66412   2.66830   2.66990
 Alpha virt. eigenvalues --    2.67039   2.67380   2.67469   2.67707   2.68148
 Alpha virt. eigenvalues --    2.68505   2.68996   2.69292   2.69515   2.69749
 Alpha virt. eigenvalues --    2.69895   2.70418   2.70702   2.70925   2.71209
 Alpha virt. eigenvalues --    2.71428   2.71511   2.71950   2.72315   2.72994
 Alpha virt. eigenvalues --    2.73080   2.73310   2.73807   2.73891   2.74192
 Alpha virt. eigenvalues --    2.74413   2.74488   2.74881   2.75282   2.75700
 Alpha virt. eigenvalues --    2.76083   2.76475   2.76732   2.77043   2.77496
 Alpha virt. eigenvalues --    2.78127   2.78395   2.78538   2.79149   2.79350
 Alpha virt. eigenvalues --    2.79472   2.80145   2.80571   2.80809   2.81071
 Alpha virt. eigenvalues --    2.81406   2.81607   2.82034   2.82312   2.82671
 Alpha virt. eigenvalues --    2.83216   2.83717   2.84122   2.84443   2.84880
 Alpha virt. eigenvalues --    2.85180   2.85291   2.85609   2.86096   2.86223
 Alpha virt. eigenvalues --    2.86802   2.86944   2.87208   2.87553   2.88058
 Alpha virt. eigenvalues --    2.88267   2.88576   2.89466   2.89846   2.90088
 Alpha virt. eigenvalues --    2.90538   2.90611   2.90895   2.91245   2.91321
 Alpha virt. eigenvalues --    2.91780   2.92178   2.92546   2.93217   2.93731
 Alpha virt. eigenvalues --    2.93836   2.94146   2.94222   2.94830   2.94927
 Alpha virt. eigenvalues --    2.95302   2.95507   2.95710   2.95940   2.96061
 Alpha virt. eigenvalues --    2.96628   2.96732   2.96906   2.97424   2.97805
 Alpha virt. eigenvalues --    2.98198   2.98455   2.98520   2.98939   2.99072
 Alpha virt. eigenvalues --    2.99155   2.99253   2.99848   3.00009   3.00385
 Alpha virt. eigenvalues --    3.00488   3.01057   3.01407   3.01733   3.02040
 Alpha virt. eigenvalues --    3.02392   3.02592   3.03037   3.03153   3.03616
 Alpha virt. eigenvalues --    3.03761   3.04072   3.04458   3.04671   3.04979
 Alpha virt. eigenvalues --    3.05304   3.05710   3.05912   3.06127   3.06435
 Alpha virt. eigenvalues --    3.06677   3.06999   3.07486   3.07730   3.08056
 Alpha virt. eigenvalues --    3.08310   3.08344   3.08521   3.08615   3.09098
 Alpha virt. eigenvalues --    3.09102   3.09710   3.10088   3.10163   3.10399
 Alpha virt. eigenvalues --    3.10746   3.10946   3.11415   3.11425   3.11556
 Alpha virt. eigenvalues --    3.11755   3.12009   3.12303   3.12460   3.12687
 Alpha virt. eigenvalues --    3.12983   3.13296   3.13428   3.13629   3.14093
 Alpha virt. eigenvalues --    3.14393   3.14662   3.15023   3.15358   3.15824
 Alpha virt. eigenvalues --    3.16113   3.16195   3.16210   3.16672   3.16856
 Alpha virt. eigenvalues --    3.17211   3.17466   3.17665   3.17951   3.18066
 Alpha virt. eigenvalues --    3.18645   3.18719   3.18854   3.19411   3.19628
 Alpha virt. eigenvalues --    3.19797   3.20238   3.20326   3.20602   3.20937
 Alpha virt. eigenvalues --    3.20999   3.21271   3.21502   3.21666   3.22106
 Alpha virt. eigenvalues --    3.22373   3.22681   3.23136   3.23217   3.23638
 Alpha virt. eigenvalues --    3.23798   3.23977   3.24530   3.24744   3.24837
 Alpha virt. eigenvalues --    3.25159   3.25285   3.25625   3.26068   3.26181
 Alpha virt. eigenvalues --    3.26416   3.26763   3.27047   3.27263   3.27568
 Alpha virt. eigenvalues --    3.27849   3.27920   3.28100   3.28557   3.28707
 Alpha virt. eigenvalues --    3.29151   3.29440   3.29825   3.30034   3.30121
 Alpha virt. eigenvalues --    3.30529   3.31052   3.31200   3.31355   3.31532
 Alpha virt. eigenvalues --    3.31667   3.32053   3.32155   3.32369   3.32713
 Alpha virt. eigenvalues --    3.33067   3.33195   3.33589   3.33830   3.33946
 Alpha virt. eigenvalues --    3.34010   3.34381   3.34772   3.34888   3.35131
 Alpha virt. eigenvalues --    3.35636   3.35883   3.35989   3.36216   3.36453
 Alpha virt. eigenvalues --    3.36687   3.36862   3.37318   3.37994   3.38138
 Alpha virt. eigenvalues --    3.38211   3.38436   3.38695   3.38811   3.39126
 Alpha virt. eigenvalues --    3.39580   3.39800   3.39934   3.40114   3.40499
 Alpha virt. eigenvalues --    3.40836   3.40878   3.41208   3.41622   3.41673
 Alpha virt. eigenvalues --    3.42071   3.42527   3.42700   3.42731   3.43246
 Alpha virt. eigenvalues --    3.43349   3.43542   3.43876   3.44035   3.44254
 Alpha virt. eigenvalues --    3.44854   3.45287   3.45327   3.45622   3.45903
 Alpha virt. eigenvalues --    3.46366   3.46818   3.46899   3.47320   3.47549
 Alpha virt. eigenvalues --    3.47888   3.48138   3.48515   3.48547   3.48752
 Alpha virt. eigenvalues --    3.49379   3.49705   3.50076   3.50177   3.50421
 Alpha virt. eigenvalues --    3.50622   3.50733   3.51189   3.51763   3.51992
 Alpha virt. eigenvalues --    3.52107   3.52595   3.52679   3.53339   3.53748
 Alpha virt. eigenvalues --    3.54105   3.54535   3.54820   3.55019   3.55273
 Alpha virt. eigenvalues --    3.55510   3.55780   3.56146   3.56316   3.56593
 Alpha virt. eigenvalues --    3.56947   3.57229   3.57773   3.58245   3.58848
 Alpha virt. eigenvalues --    3.59152   3.59311   3.59854   3.59937   3.60432
 Alpha virt. eigenvalues --    3.60596   3.61115   3.61675   3.61959   3.62193
 Alpha virt. eigenvalues --    3.62953   3.63052   3.63542   3.63843   3.64125
 Alpha virt. eigenvalues --    3.64337   3.64666   3.65133   3.65735   3.66005
 Alpha virt. eigenvalues --    3.66231   3.66369   3.66652   3.67016   3.67288
 Alpha virt. eigenvalues --    3.67821   3.67949   3.68431   3.68534   3.69241
 Alpha virt. eigenvalues --    3.69684   3.70023   3.70174   3.70553   3.71049
 Alpha virt. eigenvalues --    3.71602   3.71803   3.72251   3.72759   3.72863
 Alpha virt. eigenvalues --    3.73298   3.73542   3.73807   3.74166   3.74513
 Alpha virt. eigenvalues --    3.75207   3.75927   3.76410   3.76790   3.77291
 Alpha virt. eigenvalues --    3.77438   3.78008   3.78550   3.78788   3.79018
 Alpha virt. eigenvalues --    3.79518   3.79695   3.81387   3.81617   3.81783
 Alpha virt. eigenvalues --    3.81967   3.82319   3.83117   3.83686   3.83902
 Alpha virt. eigenvalues --    3.84789   3.85023   3.85197   3.85235   3.85976
 Alpha virt. eigenvalues --    3.86875   3.86898   3.87251   3.87626   3.88043
 Alpha virt. eigenvalues --    3.88592   3.89259   3.89517   3.89977   3.90163
 Alpha virt. eigenvalues --    3.90612   3.91063   3.91753   3.92413   3.92614
 Alpha virt. eigenvalues --    3.93266   3.93615   3.94400   3.94755   3.95192
 Alpha virt. eigenvalues --    3.95366   3.96068   3.96332   3.96697   3.97327
 Alpha virt. eigenvalues --    3.97650   3.98174   3.98624   3.99249   3.99509
 Alpha virt. eigenvalues --    3.99770   4.00806   4.01234   4.01516   4.02063
 Alpha virt. eigenvalues --    4.02703   4.03228   4.03481   4.03872   4.04544
 Alpha virt. eigenvalues --    4.04834   4.05025   4.05825   4.06127   4.06978
 Alpha virt. eigenvalues --    4.07277   4.07435   4.08016   4.08371   4.08826
 Alpha virt. eigenvalues --    4.09192   4.09755   4.10012   4.10291   4.10575
 Alpha virt. eigenvalues --    4.11836   4.12045   4.12422   4.12440   4.13153
 Alpha virt. eigenvalues --    4.13634   4.13813   4.14143   4.15345   4.16032
 Alpha virt. eigenvalues --    4.16350   4.16663   4.17094   4.17255   4.17563
 Alpha virt. eigenvalues --    4.18153   4.18785   4.19860   4.20502   4.21235
 Alpha virt. eigenvalues --    4.21692   4.22552   4.22704   4.22903   4.23736
 Alpha virt. eigenvalues --    4.23976   4.25098   4.25448   4.25782   4.26045
 Alpha virt. eigenvalues --    4.26129   4.27316   4.27593   4.27941   4.28542
 Alpha virt. eigenvalues --    4.28599   4.29032   4.29333   4.29578   4.30017
 Alpha virt. eigenvalues --    4.30422   4.30990   4.31659   4.32333   4.33250
 Alpha virt. eigenvalues --    4.33394   4.34000   4.34608   4.35045   4.35218
 Alpha virt. eigenvalues --    4.35462   4.36706   4.37022   4.37281   4.38083
 Alpha virt. eigenvalues --    4.38148   4.38679   4.38885   4.39371   4.39954
 Alpha virt. eigenvalues --    4.40099   4.40752   4.40927   4.41978   4.42123
 Alpha virt. eigenvalues --    4.42413   4.43167   4.43586   4.43859   4.45173
 Alpha virt. eigenvalues --    4.45573   4.45858   4.47441   4.47850   4.48507
 Alpha virt. eigenvalues --    4.48865   4.49739   4.50042   4.50630   4.50723
 Alpha virt. eigenvalues --    4.51658   4.52561   4.53368   4.53965   4.54206
 Alpha virt. eigenvalues --    4.55231   4.55322   4.56010   4.56798   4.57028
 Alpha virt. eigenvalues --    4.57617   4.58617   4.58979   4.59123   4.59836
 Alpha virt. eigenvalues --    4.60514   4.61224   4.62045   4.62785   4.63281
 Alpha virt. eigenvalues --    4.63877   4.64302   4.64667   4.66068   4.66996
 Alpha virt. eigenvalues --    4.67992   4.68326   4.69552   4.69723   4.70650
 Alpha virt. eigenvalues --    4.70962   4.71380   4.72146   4.72366   4.73949
 Alpha virt. eigenvalues --    4.74534   4.75587   4.76329   4.76694   4.77606
 Alpha virt. eigenvalues --    4.77703   4.79144   4.79634   4.80141   4.80795
 Alpha virt. eigenvalues --    4.81798   4.82210   4.82866   4.83426   4.83906
 Alpha virt. eigenvalues --    4.85421   4.85882   4.86029   4.87312   4.87682
 Alpha virt. eigenvalues --    4.88218   4.89234   4.89544   4.89729   4.90823
 Alpha virt. eigenvalues --    4.91228   4.92324   4.93288   4.93478   4.94284
 Alpha virt. eigenvalues --    4.94315   4.95942   4.96544   4.97395   4.98188
 Alpha virt. eigenvalues --    4.99201   4.99413   4.99796   5.00026   5.01146
 Alpha virt. eigenvalues --    5.02241   5.03622   5.03753   5.03945   5.05005
 Alpha virt. eigenvalues --    5.05436   5.06245   5.06772   5.08835   5.09515
 Alpha virt. eigenvalues --    5.10837   5.12338   5.13040   5.14253   5.17116
 Alpha virt. eigenvalues --    5.17769   5.17966   5.18252   5.18997   5.19301
 Alpha virt. eigenvalues --    5.19887   5.20481   5.21715   5.22056   5.22483
 Alpha virt. eigenvalues --    5.22760   5.23662   5.24183   5.24415   5.25147
 Alpha virt. eigenvalues --    5.25866   5.26629   5.28014   5.28445   5.28738
 Alpha virt. eigenvalues --    5.29433   5.31940   5.33034   5.34532   5.36013
 Alpha virt. eigenvalues --    5.36804   5.38075   5.38938   5.39555   5.40978
 Alpha virt. eigenvalues --    5.41390   5.42123   5.42549   5.44334   5.45111
 Alpha virt. eigenvalues --    5.45360   5.46134   5.47140   5.49252   5.50041
 Alpha virt. eigenvalues --    5.51029   5.54042   5.54318   5.54695   5.56608
 Alpha virt. eigenvalues --    5.56837   5.57536   5.57860   5.59028   5.60417
 Alpha virt. eigenvalues --    5.61404   5.63195   5.64638   5.64682   5.65477
 Alpha virt. eigenvalues --    5.67370   5.67840   5.69562   5.72524   5.73172
 Alpha virt. eigenvalues --    5.74982   5.76029   5.78703   5.79397   5.80802
 Alpha virt. eigenvalues --    5.83103   5.86593   5.89802   5.90812   5.93850
 Alpha virt. eigenvalues --    5.94906   5.97688   5.98256   5.99175   6.00242
 Alpha virt. eigenvalues --    6.02287   6.04270   6.05426   6.07402   6.08610
 Alpha virt. eigenvalues --    6.09050   6.09415   6.10758   6.11140   6.14011
 Alpha virt. eigenvalues --    6.15878   6.16314   6.21000   6.22455   6.29292
 Alpha virt. eigenvalues --    6.31719   6.33274   6.33979   6.37103   6.38772
 Alpha virt. eigenvalues --    6.42450   6.42826   6.43372   6.46656   6.47000
 Alpha virt. eigenvalues --    6.47139   6.48984   6.65320   6.66184   6.73036
 Alpha virt. eigenvalues --    6.74713   6.84505   6.86899   6.93126   6.93367
 Alpha virt. eigenvalues --    7.03168   7.05897   7.11357   7.11890   7.19803
 Alpha virt. eigenvalues --    7.20341   7.25225   7.27202   9.21174   9.50040
 Alpha virt. eigenvalues --    9.66437  20.20675  22.16511  22.23898  22.36129
 Alpha virt. eigenvalues --   22.39494  22.41676  22.50409  22.52439  22.53920
 Alpha virt. eigenvalues --   22.54785  22.57050  22.57210  22.59193  22.60621
 Alpha virt. eigenvalues --   22.64749  22.71263  22.75285  22.79511  22.89834
 Alpha virt. eigenvalues --   22.90765  22.94224  22.95122  22.98966  23.02885
 Alpha virt. eigenvalues --   23.05333  23.11687  23.23433  23.25036  23.28914
 Alpha virt. eigenvalues --   23.29646  23.32279  23.39716  23.42276  23.46611
 Alpha virt. eigenvalues --   23.52488  23.55073  23.59722  23.64051  23.65131
 Alpha virt. eigenvalues --   23.73880  23.78551  23.87352  32.44597  32.72658
 Alpha virt. eigenvalues --   33.01268  33.05793  33.10075  33.17173  43.94717
 Alpha virt. eigenvalues --   43.96984  43.98949  44.08121
  Beta  occ. eigenvalues -- -256.37683 -89.04389 -30.12484 -25.95978 -25.95865
  Beta  occ. eigenvalues --  -25.94308 -19.27627 -19.26171 -19.20202 -19.19666
  Beta  occ. eigenvalues --  -14.46125 -14.42564 -14.40913 -14.40760 -14.39686
  Beta  occ. eigenvalues --  -14.38821 -10.36968 -10.36653 -10.30889 -10.30300
  Beta  occ. eigenvalues --  -10.28642 -10.28360 -10.28046 -10.28013 -10.27898
  Beta  occ. eigenvalues --  -10.27681 -10.27459 -10.27419 -10.26422 -10.26366
  Beta  occ. eigenvalues --  -10.26326 -10.26266 -10.26238 -10.26215 -10.26015
  Beta  occ. eigenvalues --  -10.25607 -10.25332 -10.25201 -10.24847 -10.24744
  Beta  occ. eigenvalues --  -10.24680 -10.23938 -10.23742 -10.23678 -10.23650
  Beta  occ. eigenvalues --  -10.23600 -10.23555 -10.23427 -10.23394 -10.23331
  Beta  occ. eigenvalues --  -10.23220 -10.23173 -10.23093 -10.22404 -10.22337
  Beta  occ. eigenvalues --  -10.22115 -10.21476  -8.02246  -5.95904  -5.95624
  Beta  occ. eigenvalues --   -5.95098  -3.44423  -2.21517  -2.20187  -2.16600
  Beta  occ. eigenvalues --   -1.18301  -1.17263  -1.07382  -1.05277  -1.04352
  Beta  occ. eigenvalues --   -1.01912  -1.01044  -1.00827  -0.99919  -0.92707
  Beta  occ. eigenvalues --   -0.87027  -0.85795  -0.85342  -0.85084  -0.84982
  Beta  occ. eigenvalues --   -0.84315  -0.83816  -0.83439  -0.81909  -0.81127
  Beta  occ. eigenvalues --   -0.80302  -0.78818  -0.78580  -0.78062  -0.76826
  Beta  occ. eigenvalues --   -0.75201  -0.74154  -0.73727  -0.73350  -0.72516
  Beta  occ. eigenvalues --   -0.71555  -0.70757  -0.70614  -0.68999  -0.68653
  Beta  occ. eigenvalues --   -0.68463  -0.67873  -0.66331  -0.66080  -0.64405
  Beta  occ. eigenvalues --   -0.63658  -0.62438  -0.62015  -0.61879  -0.61545
  Beta  occ. eigenvalues --   -0.58344  -0.57771  -0.57642  -0.57190  -0.56286
  Beta  occ. eigenvalues --   -0.55647  -0.54953  -0.54677  -0.54143  -0.53700
  Beta  occ. eigenvalues --   -0.52379  -0.51798  -0.51609  -0.51089  -0.50446
  Beta  occ. eigenvalues --   -0.50341  -0.49734  -0.49547  -0.49381  -0.48942
  Beta  occ. eigenvalues --   -0.48585  -0.48193  -0.47781  -0.47703  -0.47408
  Beta  occ. eigenvalues --   -0.46979  -0.46857  -0.46595  -0.46288  -0.45987
  Beta  occ. eigenvalues --   -0.45675  -0.45578  -0.45442  -0.45290  -0.45262
  Beta  occ. eigenvalues --   -0.44819  -0.44729  -0.44401  -0.44060  -0.43833
  Beta  occ. eigenvalues --   -0.43716  -0.43344  -0.43160  -0.42974  -0.42828
  Beta  occ. eigenvalues --   -0.42536  -0.42460  -0.42390  -0.42141  -0.41953
  Beta  occ. eigenvalues --   -0.41603  -0.41167  -0.40788  -0.40289  -0.40232
  Beta  occ. eigenvalues --   -0.39922  -0.39786  -0.39442  -0.39380  -0.38731
  Beta  occ. eigenvalues --   -0.38599  -0.38420  -0.38118  -0.37422  -0.37073
  Beta  occ. eigenvalues --   -0.36864  -0.36518  -0.36329  -0.35937  -0.35249
  Beta  occ. eigenvalues --   -0.34897  -0.34833  -0.34356  -0.34077  -0.33845
  Beta  occ. eigenvalues --   -0.32892  -0.32291  -0.31809  -0.31414  -0.29572
  Beta  occ. eigenvalues --   -0.29450  -0.29352  -0.28974  -0.27427  -0.26278
  Beta  occ. eigenvalues --   -0.25608  -0.24745  -0.23073  -0.22345  -0.21361
  Beta  occ. eigenvalues --   -0.20115
  Beta virt. eigenvalues --   -0.14559  -0.11003  -0.09590  -0.08219  -0.07237
  Beta virt. eigenvalues --   -0.05142  -0.04608  -0.02396  -0.01741  -0.01597
  Beta virt. eigenvalues --   -0.00648  -0.00018   0.01289   0.01904   0.02083
  Beta virt. eigenvalues --    0.02598   0.02714   0.02960   0.03614   0.03887
  Beta virt. eigenvalues --    0.04227   0.04484   0.04841   0.05089   0.05406
  Beta virt. eigenvalues --    0.05630   0.05818   0.06144   0.06647   0.06747
  Beta virt. eigenvalues --    0.07005   0.07184   0.07467   0.07760   0.07851
  Beta virt. eigenvalues --    0.07946   0.08335   0.08846   0.09022   0.09041
  Beta virt. eigenvalues --    0.09437   0.09810   0.09888   0.10184   0.10455
  Beta virt. eigenvalues --    0.10733   0.10938   0.11066   0.11351   0.11517
  Beta virt. eigenvalues --    0.11811   0.12076   0.12211   0.12417   0.12479
  Beta virt. eigenvalues --    0.12591   0.12789   0.12848   0.13118   0.13433
  Beta virt. eigenvalues --    0.13527   0.13678   0.13841   0.14137   0.14276
  Beta virt. eigenvalues --    0.14344   0.14595   0.14941   0.15129   0.15279
  Beta virt. eigenvalues --    0.15469   0.15599   0.15707   0.15736   0.15934
  Beta virt. eigenvalues --    0.16501   0.16950   0.17111   0.17292   0.17349
  Beta virt. eigenvalues --    0.17572   0.17689   0.17762   0.18326   0.18410
  Beta virt. eigenvalues --    0.18559   0.18765   0.19114   0.19260   0.19428
  Beta virt. eigenvalues --    0.19682   0.19707   0.20055   0.20399   0.20511
  Beta virt. eigenvalues --    0.20645   0.20979   0.21080   0.21433   0.21698
  Beta virt. eigenvalues --    0.21899   0.21935   0.22002   0.22273   0.22737
  Beta virt. eigenvalues --    0.22940   0.23235   0.23391   0.23484   0.23713
  Beta virt. eigenvalues --    0.23989   0.24103   0.24190   0.24420   0.24894
  Beta virt. eigenvalues --    0.24968   0.25041   0.25422   0.25644   0.26054
  Beta virt. eigenvalues --    0.26103   0.26360   0.26658   0.27025   0.27226
  Beta virt. eigenvalues --    0.27362   0.27564   0.27650   0.27820   0.28214
  Beta virt. eigenvalues --    0.28386   0.28500   0.28719   0.28847   0.28964
  Beta virt. eigenvalues --    0.29134   0.29444   0.29594   0.29946   0.30066
  Beta virt. eigenvalues --    0.30253   0.30423   0.30894   0.31059   0.31092
  Beta virt. eigenvalues --    0.31172   0.31319   0.31638   0.31663   0.32196
  Beta virt. eigenvalues --    0.32227   0.32806   0.32818   0.33172   0.33454
  Beta virt. eigenvalues --    0.33532   0.33786   0.33818   0.34350   0.34542
  Beta virt. eigenvalues --    0.34948   0.35058   0.35397   0.35439   0.35525
  Beta virt. eigenvalues --    0.35863   0.36018   0.36180   0.36594   0.36707
  Beta virt. eigenvalues --    0.36810   0.37041   0.37128   0.37287   0.37547
  Beta virt. eigenvalues --    0.37700   0.37988   0.38139   0.38347   0.38477
  Beta virt. eigenvalues --    0.38654   0.38875   0.39058   0.39158   0.39468
  Beta virt. eigenvalues --    0.39729   0.39880   0.40104   0.40259   0.40479
  Beta virt. eigenvalues --    0.40723   0.40954   0.41051   0.41203   0.41372
  Beta virt. eigenvalues --    0.41449   0.41712   0.41938   0.42106   0.42304
  Beta virt. eigenvalues --    0.42535   0.42732   0.42777   0.43048   0.43207
  Beta virt. eigenvalues --    0.43350   0.43515   0.43621   0.43712   0.43952
  Beta virt. eigenvalues --    0.44064   0.44258   0.44561   0.44680   0.44818
  Beta virt. eigenvalues --    0.45077   0.45146   0.45357   0.45527   0.45568
  Beta virt. eigenvalues --    0.45805   0.45990   0.46260   0.46520   0.46747
  Beta virt. eigenvalues --    0.46783   0.46927   0.47117   0.47420   0.47467
  Beta virt. eigenvalues --    0.47713   0.47984   0.48023   0.48202   0.48388
  Beta virt. eigenvalues --    0.48504   0.48556   0.48822   0.48999   0.49260
  Beta virt. eigenvalues --    0.49330   0.49431   0.49654   0.49908   0.50056
  Beta virt. eigenvalues --    0.50137   0.50226   0.50645   0.50806   0.50842
  Beta virt. eigenvalues --    0.50918   0.51175   0.51356   0.51520   0.51814
  Beta virt. eigenvalues --    0.51922   0.52204   0.52444   0.52711   0.52824
  Beta virt. eigenvalues --    0.52933   0.53112   0.53319   0.53654   0.53743
  Beta virt. eigenvalues --    0.53901   0.54189   0.54429   0.54650   0.54849
  Beta virt. eigenvalues --    0.55232   0.55319   0.55872   0.55891   0.56188
  Beta virt. eigenvalues --    0.56250   0.56782   0.56915   0.57193   0.57341
  Beta virt. eigenvalues --    0.57484   0.57711   0.57855   0.58153   0.58261
  Beta virt. eigenvalues --    0.58510   0.58637   0.59001   0.59118   0.59317
  Beta virt. eigenvalues --    0.59712   0.59884   0.60376   0.60555   0.60613
  Beta virt. eigenvalues --    0.60739   0.60829   0.61194   0.61360   0.61712
  Beta virt. eigenvalues --    0.61787   0.62095   0.62312   0.62609   0.62998
  Beta virt. eigenvalues --    0.63279   0.63319   0.63788   0.63888   0.64308
  Beta virt. eigenvalues --    0.64847   0.64926   0.65123   0.65378   0.65737
  Beta virt. eigenvalues --    0.66015   0.66139   0.66396   0.66597   0.67065
  Beta virt. eigenvalues --    0.67224   0.67657   0.67855   0.68038   0.68142
  Beta virt. eigenvalues --    0.68661   0.68731   0.68882   0.69114   0.69234
  Beta virt. eigenvalues --    0.69686   0.70052   0.70147   0.70746   0.70987
  Beta virt. eigenvalues --    0.71249   0.71405   0.71542   0.71693   0.72520
  Beta virt. eigenvalues --    0.72757   0.72914   0.73000   0.73267   0.73694
  Beta virt. eigenvalues --    0.73847   0.74106   0.74222   0.74737   0.74792
  Beta virt. eigenvalues --    0.75287   0.75747   0.76116   0.76421   0.76581
  Beta virt. eigenvalues --    0.76982   0.77051   0.77192   0.77275   0.77863
  Beta virt. eigenvalues --    0.77926   0.78490   0.78623   0.78865   0.78976
  Beta virt. eigenvalues --    0.79488   0.79918   0.80078   0.80596   0.80707
  Beta virt. eigenvalues --    0.80967   0.81038   0.81374   0.81593   0.82098
  Beta virt. eigenvalues --    0.82303   0.82720   0.82905   0.83440   0.83509
[...]
              Bcc     0.0014     0.190     0.068     0.063  0.9881  0.1404  0.0627
 
              Baa    -0.0005     0.040     0.014     0.013 -0.0289  0.3417  0.9394
    35 O(17)  Bbb    -0.0005     0.034     0.012     0.011 -0.1460  0.9282 -0.3422
              Bcc     0.0010    -0.074    -0.026    -0.025  0.9889  0.1470 -0.0231
 
              Baa    -0.0008     0.059     0.021     0.020 -0.2333  0.1561  0.9598
    36 O(17)  Bbb    -0.0006     0.042     0.015     0.014 -0.2260  0.9513 -0.2096
              Bcc     0.0014    -0.101    -0.036    -0.034  0.9458  0.2658  0.1867
 
              Baa    -0.1179   -15.818    -5.644    -5.276 -0.0899  0.0623  0.9940
    37 C(13)  Bbb     0.0427     5.724     2.042     1.909  0.9680  0.2401  0.0725
              Bcc     0.0752    10.094     3.602     3.367 -0.2341  0.9688 -0.0819
 
              Baa    -0.1926   -25.847    -9.223    -8.622  0.5849  0.8070 -0.0817
    38 C(13)  Bbb    -0.1717   -23.043    -8.222    -7.686  0.8059 -0.5669  0.1706
              Bcc     0.3643    48.890    17.445    16.308 -0.0913  0.1657  0.9819
 
              Baa    -0.2021   -27.124    -9.678    -9.047 -0.0136  0.0082  0.9999
    39 C(13)  Bbb     0.0507     6.799     2.426     2.268  0.3827  0.9239 -0.0024
              Bcc     0.1515    20.325     7.252     6.780  0.9238 -0.3826  0.0157
 
              Baa    -0.0626    -8.400    -2.997    -2.802 -0.1177  0.0835  0.9895
    40 C(13)  Bbb     0.0076     1.016     0.362     0.339  0.6192  0.7852  0.0074
              Bcc     0.0550     7.384     2.635     2.463  0.7764 -0.6135  0.1442
 
              Baa    -0.0118    -1.580    -0.564    -0.527 -0.0862  0.5132  0.8539
    41 C(13)  Bbb    -0.0084    -1.131    -0.404    -0.377  0.3698  0.8124 -0.4509
              Bcc     0.0202     2.711     0.967     0.904  0.9251 -0.2769  0.2598
 
              Baa    -0.4084   -54.803   -19.555   -18.280  0.9523  0.2339  0.1960
    42 C(13)  Bbb    -0.3983   -53.450   -19.072   -17.829 -0.2370  0.9715 -0.0078
              Bcc     0.8067   108.253    38.627    36.109 -0.1922 -0.0390  0.9806
 
              Baa    -0.5759   -77.276   -27.574   -25.777 -0.4893  0.1625  0.8569
    43 C(13)  Bbb    -0.5744   -77.085   -27.506   -25.713 -0.0822  0.9695 -0.2308
              Bcc     1.1503   154.362    55.080    51.489  0.8682  0.1834  0.4610
 
              Baa    -0.0672    -9.018    -3.218    -3.008 -0.1529  0.0132  0.9882
    44 C(13)  Bbb     0.0222     2.983     1.064     0.995 -0.2621  0.9636 -0.0534
              Bcc     0.0450     6.035     2.153     2.013  0.9529  0.2671  0.1439
 
              Baa    -0.1371   -18.396    -6.564    -6.136  0.7479 -0.6558 -0.1030
    45 C(13)  Bbb    -0.1289   -17.292    -6.170    -5.768  0.6499  0.7549 -0.0876
              Bcc     0.2660    35.688    12.734    11.904  0.1352 -0.0014  0.9908
 
              Baa    -0.0647    -8.685    -3.099    -2.897 -0.4560 -0.5264  0.7176
    46 C(13)  Bbb    -0.0375    -5.037    -1.797    -1.680  0.8492 -0.4986  0.1739
              Bcc     0.1023    13.722     4.896     4.577  0.2662  0.6887  0.6744
 
              Baa    -0.0669    -8.979    -3.204    -2.995  0.2503  0.2712  0.9294
    47 C(13)  Bbb     0.0162     2.168     0.773     0.723  0.8099 -0.5846 -0.0475
              Bcc     0.0508     6.812     2.431     2.272  0.5305  0.7646 -0.3660
 
              Baa    -0.0051    -0.682    -0.243    -0.227 -0.1155 -0.0987  0.9884
    48 C(13)  Bbb    -0.0033    -0.437    -0.156    -0.146  0.9647 -0.2481  0.0880
              Bcc     0.0083     1.118     0.399     0.373  0.2365  0.9637  0.1238
 
              Baa    -0.0784   -10.518    -3.753    -3.509  0.4249  0.8345 -0.3509
    49 C(13)  Bbb    -0.0495    -6.639    -2.369    -2.214  0.8715 -0.2722  0.4080
              Bcc     0.1279    17.157     6.122     5.723 -0.2449  0.4791  0.8429
 
              Baa    -0.5263   -70.620   -25.199   -23.556  0.8154 -0.3822 -0.4347
    50 C(13)  Bbb    -0.5206   -69.865   -24.930   -23.305  0.5626  0.3465  0.7506
              Bcc     1.0469   140.485    50.129    46.861  0.1363  0.8567 -0.4976
 
              Baa    -0.0282    -3.783    -1.350    -1.262 -0.0342  0.2946  0.9550
    51 C(13)  Bbb    -0.0035    -0.470    -0.168    -0.157  0.9814  0.1904 -0.0236
              Bcc     0.0317     4.253     1.517     1.419 -0.1888  0.9365 -0.2956
 
              Baa    -0.0380    -5.100    -1.820    -1.701  0.1140 -0.1322  0.9847
    52 C(13)  Bbb     0.0150     2.009     0.717     0.670  0.8560  0.5162 -0.0298
              Bcc     0.0230     3.091     1.103     1.031 -0.5043  0.8462  0.1719
 
              Baa    -0.0118    -1.584    -0.565    -0.528  0.5656  0.7609  0.3180
    53 C(13)  Bbb    -0.0015    -0.200    -0.071    -0.067  0.8223 -0.5496 -0.1475
              Bcc     0.0133     1.784     0.637     0.595 -0.0625 -0.3449  0.9365
 
              Baa    -0.0727    -9.757    -3.481    -3.255  0.0026 -0.1394  0.9902
    54 C(13)  Bbb     0.0181     2.428     0.866     0.810  0.5527  0.8254  0.1148
              Bcc     0.0546     7.329     2.615     2.445  0.8334 -0.5470 -0.0792
 
              Baa    -0.0029    -0.384    -0.137    -0.128  0.0276 -0.1262  0.9916
    55 C(13)  Bbb    -0.0004    -0.058    -0.021    -0.019  0.8566  0.5143  0.0416
              Bcc     0.0033     0.442     0.158     0.148 -0.5152  0.8483  0.1223
 
              Baa    -0.0019    -0.258    -0.092    -0.086  0.2333  0.5228  0.8199
    56 C(13)  Bbb    -0.0016    -0.210    -0.075    -0.070  0.5416  0.6304 -0.5561
              Bcc     0.0035     0.467     0.167     0.156  0.8076 -0.5738  0.1361
 
              Baa    -0.0014    -0.191    -0.068    -0.064  0.3623  0.3250  0.8735
    57 C(13)  Bbb    -0.0012    -0.159    -0.057    -0.053  0.3759  0.8067 -0.4560
              Bcc     0.0026     0.350     0.125     0.117  0.8529 -0.4936 -0.1701
 
              Baa    -0.0011    -0.147    -0.052    -0.049 -0.0656 -0.3103  0.9484
    58 C(13)  Bbb    -0.0008    -0.109    -0.039    -0.037  0.4008  0.8622  0.3099
              Bcc     0.0019     0.256     0.091     0.085  0.9138 -0.4004 -0.0678
 
              Baa    -0.0012     0.087     0.031     0.029  0.0240 -0.4779  0.8781
    59 O(17)  Bbb    -0.0008     0.057     0.020     0.019  0.4158  0.8035  0.4260
              Bcc     0.0020    -0.144    -0.051    -0.048  0.9092 -0.3549 -0.2180
 
              Baa    -0.0008     0.060     0.021     0.020 -0.1576 -0.2212  0.9624
    60 O(17)  Bbb    -0.0007     0.048     0.017     0.016  0.3665  0.8919  0.2650
              Bcc     0.0015    -0.108    -0.038    -0.036  0.9170 -0.3945  0.0595
 
              Baa    -0.1252    -4.830    -1.723    -1.611 -0.5041  0.8586 -0.0932
    61 N(14)  Bbb     0.0316     1.218     0.435     0.406  0.3386  0.2957  0.8932
              Bcc     0.0936     3.612     1.289     1.205  0.7945  0.4187 -0.4398
 
              Baa    -0.1449    -5.590    -1.995    -1.865  0.8471  0.5269  0.0689
    62 N(14)  Bbb    -0.0777    -2.998    -1.070    -1.000 -0.5110  0.8434 -0.1660
              Bcc     0.2227     8.589     3.065     2.865 -0.1456  0.1054  0.9837
 
              Baa    -0.1559    -6.011    -2.145    -2.005  0.4059  0.6169  0.6743
    63 N(14)  Bbb    -0.1008    -3.889    -1.388    -1.297 -0.6645  0.7057 -0.2456
              Bcc     0.2567     9.900     3.533     3.302 -0.6274 -0.3484  0.6964
 
              Baa    -0.0155    -0.598    -0.214    -0.200 -0.2703  0.7985 -0.5379
    64 N(14)  Bbb    -0.0101    -0.389    -0.139    -0.130  0.8390  0.4694  0.2752
              Bcc     0.0256     0.988     0.352     0.329 -0.4722  0.3769  0.7968
 
              Baa    -3.4278   -59.344   -21.176   -19.795 -0.2065 -0.0262  0.9781
    65 Fe(57) Bbb    -0.0963    -1.667    -0.595    -0.556 -0.5457  0.8328 -0.0929
              Bcc     3.5241    61.011    21.770    20.351  0.8121  0.5529  0.1863
 
              Baa    -0.0056    -2.997    -1.070    -1.000 -0.3219  0.1603  0.9331
    66 H(1)   Bbb    -0.0041    -2.192    -0.782    -0.731  0.8639 -0.3534  0.3588
              Bcc     0.0097     5.190     1.852     1.731  0.3873  0.9216 -0.0247
 
              Baa    -0.0120    -6.420    -2.291    -2.141 -0.0635  0.0596  0.9962
    67 H(1)   Bbb     0.0005     0.251     0.090     0.084  0.9039  0.4266  0.0321
              Bcc     0.0116     6.168     2.201     2.058 -0.4230  0.9025 -0.0809
 
              Baa    -0.0060    -3.212    -1.146    -1.072 -0.1466 -0.0283  0.9888
    68 H(1)   Bbb     0.0024     1.257     0.448     0.419 -0.3192  0.9475 -0.0202
              Bcc     0.0037     1.956     0.698     0.652  0.9363  0.3186  0.1480
 
              Baa    -0.0059    -3.170    -1.131    -1.057  0.2867  0.9540  0.0879
    69 H(1)   Bbb    -0.0032    -1.726    -0.616    -0.576 -0.0790 -0.0679  0.9946
              Bcc     0.0092     4.896     1.747     1.633  0.9548 -0.2921  0.0559
 
              Baa    -0.0018    -0.934    -0.333    -0.311 -0.0042  0.0957  0.9954
    70 H(1)   Bbb    -0.0012    -0.635    -0.226    -0.212 -0.4945  0.8650 -0.0853
              Bcc     0.0029     1.569     0.560     0.523  0.8692  0.4925 -0.0437
 
              Baa    -0.0023    -1.216    -0.434    -0.406 -0.1465  0.0103  0.9892
    71 H(1)   Bbb    -0.0014    -0.772    -0.275    -0.258 -0.5891  0.8024 -0.0956
              Bcc     0.0037     1.988     0.709     0.663  0.7947  0.5967  0.1115
 
              Baa    -0.0016    -0.862    -0.308    -0.287 -0.1583 -0.0594  0.9856
    72 H(1)   Bbb    -0.0013    -0.676    -0.241    -0.225 -0.4890  0.8719 -0.0260
              Bcc     0.0029     1.537     0.549     0.513  0.8578  0.4861  0.1670
 
              Baa    -0.0021    -1.116    -0.398    -0.372  0.0515 -0.2332  0.9711
    73 H(1)   Bbb    -0.0019    -0.991    -0.354    -0.330 -0.0629  0.9697  0.2362
              Bcc     0.0039     2.107     0.752     0.703  0.9967  0.0733 -0.0352
 
              Baa    -0.0017    -0.907    -0.324    -0.303 -0.2517  0.4668  0.8478
    74 H(1)   Bbb    -0.0016    -0.865    -0.309    -0.289  0.0206  0.8784 -0.4775
              Bcc     0.0033     1.772     0.632     0.591  0.9676  0.1027  0.2307
 
              Baa    -0.0011    -0.594    -0.212    -0.198 -0.0597  0.0950  0.9937
    75 H(1)   Bbb    -0.0009    -0.468    -0.167    -0.156 -0.3541  0.9287 -0.1101
              Bcc     0.0020     1.062     0.379     0.354  0.9333  0.3585  0.0218
 
              Baa    -0.0012    -0.619    -0.221    -0.206  0.0624  0.3312  0.9415
    76 H(1)   Bbb    -0.0010    -0.545    -0.194    -0.182 -0.2509  0.9183 -0.3064
              Bcc     0.0022     1.164     0.415     0.388  0.9660  0.2171 -0.1404
 
              Baa    -0.0084    -4.480    -1.599    -1.494  0.1681  0.3299  0.9289
    77 H(1)   Bbb    -0.0009    -0.457    -0.163    -0.153 -0.6656  0.7330 -0.1399
              Bcc     0.0093     4.938     1.762     1.647  0.7271  0.5948 -0.3428
 
              Baa    -0.0190   -10.121    -3.611    -3.376  0.0694  0.3795  0.9226
    78 H(1)   Bbb    -0.0045    -2.401    -0.857    -0.801 -0.3743  0.8672 -0.3285
              Bcc     0.0235    12.522     4.468     4.177  0.9247  0.3225 -0.2022
 
              Baa    -0.0085    -4.549    -1.623    -1.517 -0.2951 -0.1860  0.9372
    79 H(1)   Bbb    -0.0015    -0.793    -0.283    -0.264 -0.6929  0.7170 -0.0759
              Bcc     0.0100     5.342     1.906     1.782  0.6579  0.6718  0.3405
 
              Baa    -0.0080    -4.279    -1.527    -1.427 -0.2640  0.0077  0.9645
    80 H(1)   Bbb     0.0011     0.596     0.213     0.199  0.8945  0.3761  0.2418
              Bcc     0.0069     3.682     1.314     1.228 -0.3609  0.9265 -0.1062
 
              Baa    -0.0121    -6.471    -2.309    -2.159  0.3321 -0.3530  0.8747
    81 H(1)   Bbb    -0.0019    -1.011    -0.361    -0.337  0.8797  0.4504 -0.1522
              Bcc     0.0140     7.482     2.670     2.496 -0.3402  0.8201  0.4601
 
              Baa    -0.0073    -3.901    -1.392    -1.301  0.3220 -0.2027  0.9248
    82 H(1)   Bbb     0.0018     0.964     0.344     0.321  0.7658  0.6300 -0.1286
              Bcc     0.0055     2.937     1.048     0.980 -0.5566  0.7496  0.3581
 
              Baa    -0.0018    -0.972    -0.347    -0.324  0.0687 -0.0795  0.9945
    83 H(1)   Bbb    -0.0008    -0.407    -0.145    -0.136  0.8215  0.5701 -0.0111
              Bcc     0.0026     1.379     0.492     0.460 -0.5661  0.8177  0.1044
 
              Baa    -0.0014    -0.739    -0.264    -0.247 -0.1649 -0.0622  0.9843
    84 H(1)   Bbb    -0.0009    -0.493    -0.176    -0.165  0.8158  0.5523  0.1716
              Bcc     0.0023     1.233     0.440     0.411 -0.5543  0.8313 -0.0404
 
              Baa    -0.0019    -1.035    -0.369    -0.345 -0.2544 -0.0482  0.9659
    85 H(1)   Bbb    -0.0009    -0.482    -0.172    -0.161  0.8369  0.4895  0.2449
              Bcc     0.0028     1.517     0.541     0.506 -0.4846  0.8706 -0.0842
 
              Baa    -0.0014    -0.750    -0.268    -0.250 -0.1234  0.0845  0.9888
    86 H(1)   Bbb    -0.0012    -0.647    -0.231    -0.216  0.6679  0.7440  0.0198
              Bcc     0.0026     1.397     0.498     0.466  0.7339 -0.6629  0.1483
 
              Baa    -0.0020    -1.051    -0.375    -0.351 -0.0294  0.2605  0.9650
    87 H(1)   Bbb    -0.0017    -0.905    -0.323    -0.302  0.5608  0.8035 -0.1998
              Bcc     0.0037     1.956     0.698     0.652  0.8274 -0.5353  0.1698
 
              Baa    -0.0018    -0.944    -0.337    -0.315  0.1093 -0.3049  0.9461
    88 H(1)   Bbb    -0.0016    -0.842    -0.300    -0.281  0.5633  0.8032  0.1938
              Bcc     0.0033     1.785     0.637     0.596  0.8190 -0.5117 -0.2596
 
              Baa    -0.0010    -0.552    -0.197    -0.184 -0.0728 -0.3190  0.9449
    89 H(1)   Bbb    -0.0009    -0.488    -0.174    -0.163  0.6310  0.7190  0.2913
              Bcc     0.0019     1.040     0.371     0.347  0.7724 -0.6175 -0.1490
 
              Baa    -0.0006    -0.345    -0.123    -0.115 -0.0637 -0.0199  0.9978
    90 H(1)   Bbb    -0.0006    -0.315    -0.113    -0.105  0.4701  0.8813  0.0476
              Bcc     0.0012     0.661     0.236     0.220  0.8803 -0.4721  0.0467
 
              Baa    -0.0005    -0.290    -0.104    -0.097  0.0713  0.1495  0.9862
    91 H(1)   Bbb    -0.0005    -0.266    -0.095    -0.089 -0.0930  0.9854 -0.1426
              Bcc     0.0010     0.557     0.199     0.186  0.9931  0.0816 -0.0842
 
              Baa    -0.0751   -40.088   -14.304   -13.372 -0.4165  0.7624  0.4952
    92 H(1)   Bbb    -0.0026    -1.370    -0.489    -0.457  0.8830  0.2095  0.4201
              Bcc     0.0777    41.458    14.793    13.829 -0.2166 -0.6122  0.7604
 
              Baa    -0.0678   -36.184   -12.911   -12.070  0.5701  0.3342  0.7505
    93 H(1)   Bbb     0.0012     0.664     0.237     0.221  0.0393  0.9014 -0.4313
              Bcc     0.0666    35.520    12.674    11.848  0.8206 -0.2754 -0.5007
 
              Baa    -0.0036    -1.933    -0.690    -0.645  0.5578  0.5649  0.6080
    94 H(1)   Bbb    -0.0026    -1.392    -0.497    -0.464 -0.5967  0.7822 -0.1794
              Bcc     0.0062     3.325     1.186     1.109 -0.5769 -0.2627  0.7734
 
              Baa    -0.0020    -1.046    -0.373    -0.349 -0.6542  0.7195  0.2332
    95 H(1)   Bbb    -0.0015    -0.783    -0.279    -0.261  0.7540  0.5958  0.2768
              Bcc     0.0034     1.829     0.653     0.610 -0.0602 -0.3569  0.9322
 
              Baa    -0.0689   -36.767   -13.119   -12.264  0.9809 -0.1931 -0.0216
    96 H(1)   Bbb     0.0023     1.211     0.432     0.404  0.1579  0.8572 -0.4901
              Bcc     0.0666    35.556    12.687    11.860  0.1132  0.4773  0.8714
 
              Baa    -0.0091    -4.870    -1.738    -1.624 -0.4339  0.3016  0.8490
    97 H(1)   Bbb    -0.0077    -4.132    -1.474    -1.378  0.5526  0.8333 -0.0136
              Bcc     0.0169     9.002     3.212     3.003  0.7116 -0.4632  0.5283
 
              Baa    -0.0758   -40.426   -14.425   -13.485  0.0803  0.8750 -0.4774
    98 H(1)   Bbb    -0.0014    -0.729    -0.260    -0.243  0.8600  0.1813  0.4769
              Bcc     0.0771    41.155    14.685    13.728 -0.5039  0.4489  0.7380
 
              Baa    -0.0497   -26.539    -9.470    -8.852  0.7544 -0.6475  0.1081
    99 H(1)   Bbb    -0.0075    -3.981    -1.420    -1.328 -0.1845 -0.0512  0.9815
              Bcc     0.0572    30.520    10.890    10.180  0.6300  0.7604  0.1581
 

 ---------------------------------------------------------------------------------

 1\1\GINC-NODE867\SP\UPBE1PBE\def2TZVP\C41H46Fe1N6O4S1(1+,6)\ZHARTOVSKA
 \24-Jan-2023\0\\# PBE1PBE/def2TZVP empiricaldispersion=GD3BJ int=(grid
 =ultrafine) geom=check guess=read scrf=(smd,solvent=Chloroform)\\1qpu_
 III_H_solv\\1,6\C,0,2.282,-5.169,8.634\C,0,3.509,-5.724,7.905\S,0,3.30
 1,-5.824,6.104\C,0,4.897,-5.355,5.406\H,0,2.46731386,-5.15936603,9.687
 78649\H,0,1.43388655,-5.787553,8.42664582\H,0,4.324,-5.028,8.095\H,0,3
 .791,-6.69,8.319\H,0,5.164,-4.376,5.804\H,0,5.661,-6.086,5.662\H,0,4.7
 98,-5.274,4.324\C,0,0.966,-12.429,2.492\C,0,0.992,-11.18,3.345\N,0,-0.
 055,-10.84,4.164\C,0,1.929,-10.176,3.425\C,0,0.226,-9.654,4.709\N,0,1.
 436,-9.215,4.325\H,0,0.21168143,-12.33130538,1.73943156\H,0,0.7481295,
 -13.27674538,3.10743498\H,0,-0.949,-11.309,4.18\H,0,2.864,-10.127,2.88
 8\H,0,-0.457,-9.141,5.365\C,0,2.314,-8.973,8.107\C,0,-0.757,-6.058,5.7
 79\C,0,2.335,-6.11,1.965\C,0,5.465,-8.968,4.422\C,0,1.226,-8.25,7.755\
 C,0,0.107,-8.117,8.63\C,0,-0.757,-7.265,8.011\C,0,-0.191,-6.899,6.728\
 C,0,-2.005,-6.837,8.669\C,0,0.025,-8.751,10.003\C,0,-0.643,-8.068,11.2
 17\C,0,-0.866,-9.024,12.375\O,0,-0.739,-8.55,13.523\O,0,-1.21,-10.192,
 12.089\C,0,-0.156,-5.832,4.532\C,0,-0.669,-4.922,3.536\C,0,0.206,-4.94
 5,2.47\C,0,1.26,-5.86,2.806\C,0,-1.853,-4.028,3.762\C,0,0.182,-4.178,1
 .173\C,0,-1.055,-3.366,0.836\C,0,3.427,-6.904,2.311\C,0,4.529,-7.184,1
 .431\C,0,5.431,-7.971,2.114\C,0,4.86,-8.208,3.42\C,0,4.516,-6.824,-0.0
 22\C,0,6.755,-8.516,1.615\C,0,7.42,-7.741,0.48\C,0,4.87,-9.139,5.664\C
 ,0,5.437,-9.871,6.774\C,0,4.524,-9.875,7.778\C,0,3.412,-9.117,7.329\C,
 0,6.738,-10.558,6.92\C,0,4.537,-10.691,9.042\C,0,5.019,-9.893,10.237\C
 ,0,4.08,-10.031,11.412\O,0,3.575,-8.969,11.83\O,0,3.845,-11.19,11.812\
 N,0,1.007,-7.536,6.637\N,0,1.002,-6.365,4.033\N,0,3.649,-7.553,3.467\N
 ,0,3.652,-8.675,6.086\Fe,0,2.258,-7.553,5.013\H,0,-1.686,-5.569,6.019\
 H,0,2.316,-5.623,1.005\H,0,6.418,-9.439,4.239\H,0,2.334,-9.411,9.085\H
 ,0,-1.677,-6.14,9.44\H,0,-2.746,-6.429,7.988\H,0,-2.345,-7.759,9.139\H
 ,0,0.999,-8.495,10.306\H,0,0.074,-9.856,9.977\H,0,-1.591,-7.597,11.021
 \H,0,0.034,-7.278,11.56\H,0,-1.732,-3.646,4.768\H,0,-1.898,-3.178,3.08
 8\H,0,-2.776,-4.598,3.706\H,0,4.603,-5.747,-0.139\H,0,5.288,-7.325,-0.
 593\H,0,3.54,-7.158,-0.366\H,0,7.47,-9.817,7.227\H,0,6.536,-11.273,7.7
 24\H,0,7.033,-11.061,6.01\H,0,4.91,-11.691,9.02\H,0,3.545,-11.02,9.192
 \H,0,4.974,-8.851,9.953\H,0,6.036,-10.179,10.508\H,0,4.5711661,-11.783
 5636,12.0168537\H,0,0.13689903,-8.40003863,13.88619758\H,0,-1.26640411
 ,-2.46516465,1.37331181\H,0,6.9546156,-7.69729279,-0.48250041\H,0,2.08
 745112,-4.17228276,8.29694589\H,0,1.91979822,-12.56241773,2.02577187\H
 ,0,8.35142881,-7.24157275,0.64707123\H,0,7.198495,-9.39461495,2.034818
 95\H,0,-1.71576114,-3.69432267,0.06108133\H,0,1.01764659,-4.2052942,0.
 50528014\\Version=AM64L-G16RevA.03\State=6-A\HF=-3879.0871971\S2=9.028
 505\S2-1=0.\S2A=8.766628\RMSD=2.305e-09\Dipole=2.9973749,-0.9980059,-3
 .5486623\Quadrupole=2.8036771,-12.5988843,9.7952073,-19.9408187,10.078
 9085,1.0792882\PG=C01 [X(C41H46Fe1N6O4S1)]\\@


 The most important thing in communication is to hear what isn't being said.
 -- Peter F. Drucker
 Job cpu time:       8 days 13 hours 18 minutes 35.8 seconds.
 Elapsed time:       2 days  3 hours 29 minutes 19.6 seconds.
 File lengths (MBytes):  RWF=   4261 Int=      0 D2E=      0 Chk=    298 Scr=      1
 Normal termination of Gaussian 16 at Tue Jan 24 10:57:16 2023.
