 Initial command:
 /afs/math/software/gaussian/g16.A03/g16/l1.exe "/scratch/zhartovska_gaussian.gWqLz0C/Gau-21938.inp" -scrdir="/scratch/zhartovska_gaussian.gWqLz0C/"
 Entering Link 1 = /afs/math/software/gaussian/g16.A03/g16/l1.exe PID=      6290.
  
 Copyright (c) 1988,1990,1992,1993,1995,1998,2003,2009,2016,
            Gaussian, Inc.  All Rights Reserved.
  
 This is part of the Gaussian(R) 16 program.  It is based on
 the Gaussian(R) 09 system (copyright 2009, Gaussian, Inc.),
 the Gaussian(R) 03 system (copyright 2003, Gaussian, Inc.),
 the Gaussian(R) 98 system (copyright 1998, Gaussian, Inc.),
 the Gaussian(R) 94 system (copyright 1995, Gaussian, Inc.),
 the Gaussian 92(TM) system (copyright 1992, Gaussian, Inc.),
 the Gaussian 90(TM) system (copyright 1990, Gaussian, Inc.),
 the Gaussian 88(TM) system (copyright 1988, Gaussian, Inc.),
 the Gaussian 86(TM) system (copyright 1986, Carnegie Mellon
 University), and the Gaussian 82(TM) system (copyright 1983,
 Carnegie Mellon University). Gaussian is a federally registered
 trademark of Gaussian, Inc.
  
 This software contains proprietary and confidential information,
 including trade secrets, belonging to Gaussian, Inc.
  
 This software is provided under written license and may be
 used, copied, transmitted, or stored only in accord with that
 written license.
  
 The following legend is applicable only to US Government
 contracts under FAR:
  
                    RESTRICTED RIGHTS LEGEND
  
 Use, reproduction and disclosure by the US Government is
 subject to restrictions as set forth in subparagraphs (a)
 and (c) of the Commercial Computer Software - Restricted
 Rights clause in FAR 52.227-19.
  
 Gaussian, Inc.
 340 Quinnipiac St., Bldg. 40, Wallingford CT 06492
  
  
 ---------------------------------------------------------------
 Warning -- This program may not be used in any manner that
 competes with the business of Gaussian, Inc. or will provide
 assistance to any competitor of Gaussian, Inc.  The licensee
 of this program is prohibited from giving any competitor of
 Gaussian, Inc. access to this program.  By using this program,
 the user acknowledges that Gaussian, Inc. is engaged in the
 business of creating and licensing software in the field of
 computational chemistry and represents and warrants to the
 licensee that it is not a competitor of Gaussian, Inc. and that
 it will not use this program in any manner prohibited above.
 ---------------------------------------------------------------
  

 Cite this work as:
 Gaussian 16, Revision A.03,
 M. J. Frisch, G. W. Trucks, H. B. Schlegel, G. E. Scuseria, 
 M. A. Robb, J. R. Cheeseman, G. Scalmani, V. Barone, 
 G. A. Petersson, H. Nakatsuji, X. Li, M. Caricato, A. V. Marenich, 
 J. Bloino, B. G. Janesko, R. Gomperts, B. Mennucci, H. P. Hratchian, 
 J. V. Ortiz, A. F. Izmaylov, J. L. Sonnenberg, D. Williams-Young, 
 F. Ding, F. Lipparini, F. Egidi, J. Goings, B. Peng, A. Petrone, 
 T. Henderson, D. Ranasinghe, V. G. Zakrzewski, J. Gao, N. Rega, 
 G. Zheng, W. Liang, M. Hada, M. Ehara, K. Toyota, R. Fukuda, 
 J. Hasegawa, M. Ishida, T. Nakajima, Y. Honda, O. Kitao, H. Nakai, 
 T. Vreven, K. Throssell, J. A. Montgomery, Jr., J. E. Peralta, 
 F. Ogliaro, M. J. Bearpark, J. J. Heyd, E. N. Brothers, K. N. Kudin, 
 V. N. Staroverov, T. A. Keith, R. Kobayashi, J. Normand, 
 K. Raghavachari, A. P. Rendell, J. C. Burant, S. S. Iyengar, 
 J. Tomasi, M. Cossi, J. M. Millam, M. Klene, C. Adamo, R. Cammi, 
 J. W. Ochterski, R. L. Martin, K. Morokuma, O. Farkas, 
 J. B. Foresman, and D. J. Fox, Gaussian, Inc., Wallingford CT, 2016.
 
 ******************************************
 Gaussian 16:  ES64L-G16RevA.03 25-Dec-2016
                16-Jan-2023 
 ******************************************
 %nprocs=12
 Will use up to   12 processors via shared memory.
 %mem=16GB
 %chk=1qpu_III_D.chk
 ----------------------------------------------------------------------
 # PBE1PBE/def2TZVP empiricaldispersion=GD3BJ int=(grid=ultrafine) geom
 =check guess=read scrf=(smd,solvent=Chloroform)
 ----------------------------------------------------------------------
 1/29=2,38=1,172=1/1;
 2/12=2,40=1/2;
 3/5=44,7=101,11=2,14=-4,25=1,30=1,70=32201,72=7,74=-13,75=-5,116=-2,124=41/1,2,3;
 4/5=1/1;
 5/5=2,38=6,53=7/2;
 6/7=2,8=2,9=2,10=2,28=1/1;
 99/5=1,9=1/99;
 ---------------
 1qpu_III_D_solv
 ---------------
 Structure from the checkpoint file:  "1qpu_III_D.chk"
 Charge =  1 Multiplicity = 2
 Z-Matrix found in chk file.
 C,0,2.282,-5.169,8.634
 C,0,3.509,-5.724,7.905
 S,0,3.301,-5.824,6.104
 C,0,4.897,-5.355,5.406
 H,0,2.46731386,-5.15936603,9.68778649
 H,0,1.43388655,-5.787553,8.42664582
 H,0,4.324,-5.028,8.095
 H,0,3.791,-6.69,8.319
 H,0,5.164,-4.376,5.804
 H,0,5.661,-6.086,5.662
 H,0,4.798,-5.274,4.324
 C,0,0.966,-12.429,2.492
 C,0,0.992,-11.18,3.345
 N,0,-0.055,-10.84,4.164
 C,0,1.929,-10.176,3.425
 C,0,0.226,-9.654,4.709
 N,0,1.436,-9.215,4.325
 H,0,0.21168143,-12.33130538,1.73943156
 H,0,0.7481295,-13.27674538,3.10743498
 H,0,-0.949,-11.309,4.18
 H,0,2.864,-10.127,2.888
 H,0,-0.457,-9.141,5.365
 C,0,2.314,-8.973,8.107
 C,0,-0.757,-6.058,5.779
 C,0,2.335,-6.11,1.965
 C,0,5.465,-8.968,4.422
 C,0,1.226,-8.25,7.755
 C,0,0.107,-8.117,8.63
 C,0,-0.757,-7.265,8.011
 C,0,-0.191,-6.899,6.728
 C,0,-2.005,-6.837,8.669
 C,0,0.025,-8.751,10.003
 C,0,-0.643,-8.068,11.217
 C,0,-0.866,-9.024,12.375
 O,0,-0.739,-8.55,13.523
 O,0,-1.21,-10.192,12.089
 C,0,-0.156,-5.832,4.532
 C,0,-0.669,-4.922,3.536
 C,0,0.206,-4.945,2.47
 C,0,1.26,-5.86,2.806
 C,0,-1.853,-4.028,3.762
 C,0,0.182,-4.178,1.173
 C,0,-1.055,-3.366,0.836
 C,0,3.427,-6.904,2.311
 C,0,4.529,-7.184,1.431
 C,0,5.431,-7.971,2.114
 C,0,4.86,-8.208,3.42
 C,0,4.516,-6.824,-0.022
 C,0,6.755,-8.516,1.615
 C,0,7.42,-7.741,0.48
 C,0,4.87,-9.139,5.664
 C,0,5.437,-9.871,6.774
 C,0,4.524,-9.875,7.778
 C,0,3.412,-9.117,7.329
 C,0,6.738,-10.558,6.92
 C,0,4.537,-10.691,9.042
 C,0,5.019,-9.893,10.237
 C,0,4.08,-10.031,11.412
 O,0,3.575,-8.969,11.83
 O,0,3.845,-11.19,11.812
 N,0,1.007,-7.536,6.637
 N,0,1.002,-6.365,4.033
 N,0,3.649,-7.553,3.467
 N,0,3.652,-8.675,6.086
 Fe,0,2.258,-7.553,5.013
 H,0,-1.686,-5.569,6.019
 H,0,2.316,-5.623,1.005
 H,0,6.418,-9.439,4.239
 H,0,2.334,-9.411,9.085
 H,0,-1.677,-6.14,9.44
 H,0,-2.746,-6.429,7.988
 H,0,-2.345,-7.759,9.139
 H,0,0.999,-8.495,10.306
 H,0,0.074,-9.856,9.977
 H,0,-1.591,-7.597,11.021
 H,0,0.034,-7.278,11.56
 H,0,-1.732,-3.646,4.768
 H,0,-1.898,-3.178,3.088
 H,0,-2.776,-4.598,3.706
 H,0,4.603,-5.747,-0.139
 H,0,5.288,-7.325,-0.593
 H,0,3.54,-7.158,-0.366
 H,0,7.47,-9.817,7.227
 H,0,6.536,-11.273,7.724
 H,0,7.033,-11.061,6.01
 H,0,4.91,-11.691,9.02
 H,0,3.545,-11.02,9.192
 H,0,4.974,-8.851,9.953
 H,0,6.036,-10.179,10.508
 H,0,4.5711661,-11.7835636,12.0168537
 H,0,0.13689903,-8.40003863,13.88619758
 H,0,-1.26640411,-2.46516465,1.37331181
 H,0,6.9546156,-7.69729279,-0.48250041
 H,0,2.08745112,-4.17228276,8.29694589
 H,0,1.91979822,-12.56241773,2.02577187
 H,0,8.35142881,-7.24157275,0.64707123
 H,0,7.198495,-9.39461495,2.03481895
 H,0,-1.71576114,-3.69432267,0.06108133
 H,0,1.01764659,-4.2052942,0.50528014
 Recover connectivity data from disk.
 Stoichiometry    C41H46FeN6O4S(1+,2)
 Framework group  C1[X(C41H46FeN6O4S)]
 Deg. of freedom   291
 Full point group                 C1      NOp   1
 Largest Abelian subgroup         C1      NOp   1
 Largest concise Abelian subgroup C1      NOp   1
                         Standard orientation:                         
 ---------------------------------------------------------------------
 Center     Atomic      Atomic             Coordinates (Angstroms)
 Number     Number       Type             X           Y           Z
 ---------------------------------------------------------------------
      1          6           0        1.825752    1.252355   -3.086128
      2          6           0        1.072856   -0.076888   -2.980033
      3         16           0       -0.585717    0.082651   -2.258544
      4          6           0       -1.628464   -1.060936   -3.185511
      5          1           0        2.798313    1.079553   -3.497423
      6          1           0        1.922062    1.686380   -2.112862
      7          1           0        0.945707   -0.443544   -3.996958
      8          1           0        1.667100   -0.806443   -2.433499
      9          1           0       -1.540405   -0.814697   -4.243691
     10          1           0       -1.322463   -2.090490   -3.012380
     11          1           0       -2.664881   -0.917830   -2.881459
     12          6           0       -1.977414   -1.100435    5.408808
     13          6           0       -1.484939   -0.518347    4.102313
     14          7           0       -0.620788    0.546696    4.063641
     15          6           0       -1.814848   -0.836854    2.805355
     16          6           0       -0.447308    0.880897    2.782705
     17          7           0       -1.120563    0.052896    1.966974
     18          1           0       -2.597910   -0.384887    5.906679
     19          1           0       -1.140219   -1.340335    6.030461
     20          1           0       -0.341983    1.091086    4.866984
     21          1           0       -2.490618   -1.616519    2.488413
     22          1           0        0.158643    1.717861    2.478881
     23          6           0        2.282875   -0.649626    0.218819
     24          6           0       -0.180020    3.497667   -0.067466
     25          6           0       -4.304226    0.845468   -0.325393
     26          6           0       -1.742306   -3.326906   -0.152844
     27          6           0        1.939749    0.658979    0.232795
     28          6           0        2.921456    1.683261    0.383036
     29          6           0        2.254750    2.865283    0.265184
     30          6           0        0.846805    2.574813    0.081558
     31          6           0        2.975545    4.151039    0.295799
     32          6           0        4.404935    1.419180    0.535877
     33          6           0        5.497493    2.318467   -0.083888
     34          6           0        6.880410    2.020923    0.467145
     35          8           0        7.834465    2.127103   -0.331112
     36          8           0        6.959555    1.746295    1.684795
     37          6           0       -1.523782    3.106942   -0.161928
     38          6           0       -2.621504    4.018632   -0.378982
     39          6           0       -3.773804    3.263782   -0.449087
     40          6           0       -3.391737    1.889955   -0.282770
     41          6           0       -2.441251    5.486181   -0.635844
     42          6           0       -5.201396    3.684581   -0.685696
     43          6           0       -5.528694    5.166449   -0.680472
     44          6           0       -3.949460   -0.501653   -0.280428
     45          6           0       -4.895900   -1.583832   -0.299036
     46          6           0       -4.190791   -2.767708   -0.272216
     47          6           0       -2.792824   -2.409419   -0.200375
     48          6           0       -6.370809   -1.371547   -0.155660
     49          6           0       -4.742565   -4.179894   -0.288919
     50          6           0       -6.129119   -4.356305   -0.903264
     51          6           0       -0.418234   -2.914098   -0.105400
     52          6           0        0.734324   -3.786411   -0.095803
     53          6           0        1.840490   -3.010932    0.033151
     54          6           0        1.399861   -1.662631    0.058408
     55          6           0        0.837412   -5.259024   -0.177488
     56          6           0        3.250818   -3.445904    0.325546
     57          6           0        4.110100   -3.488562   -0.922239
     58          6           0        5.417540   -2.759492   -0.721118
     59          8           0        5.628473   -1.801759   -1.493029
     60          8           0        6.130999   -3.135153    0.231962
     61          7           0        0.727846    1.220159    0.077713
     62          7           0       -2.051753    1.844920   -0.110924
     63          7           0       -2.718290   -1.033871   -0.192189
     64          7           0        0.063509   -1.632881   -0.047847
     65         26           0       -1.018939    0.150369   -0.005700
     66          1           0        0.075072    4.543025   -0.111256
     67          1           0       -5.340214    1.118064   -0.432865
     68          1           0       -1.951486   -4.385104   -0.152369
     69          1           0        3.323438   -0.899125    0.279691
     70          1           0        3.480991    4.198865   -0.668603
     71          1           0        2.342439    5.007450    0.508034
     72          1           0        3.712627    3.982789    1.080008
     73          1           0        4.471443    0.694863   -0.223704
     74          1           0        4.652499    0.830191    1.439153
     75          1           0        5.344420    3.378278    0.027153
     76          1           0        5.514732    2.115821   -1.160325
     77          1           0       -1.598312    5.554278   -1.312171
     78          1           0       -3.292357    5.956507   -1.118765
     79          1           0       -2.200802    6.006918    0.286644
     80          1           0       -6.769641   -0.912327   -1.056347
     81          1           0       -6.913134   -2.281234    0.071009
     82          1           0       -6.456310   -0.683448    0.682002
     83          1           0        0.823853   -5.533137   -1.228122
     84          1           0        1.818200   -5.449986    0.269763
     85          1           0        0.049440   -5.749940    0.375896
     86          1           0        3.423164   -4.264495    0.988734
     87          1           0        3.637755   -2.749194    1.018136
     88          1           0        3.582229   -2.929352   -1.681898
     89          1           0        4.276615   -4.517951   -1.241859
     90          1           0        6.359481   -4.063019    0.323935
     91          1           0        8.001145    1.434598   -0.974738
     92          1           0       -5.210578    5.787468   -1.491667
     93          1           0       -6.982858   -3.915208   -0.432665
     94          1           0        1.282956    1.919922   -3.722231
     95          1           0       -2.542460   -1.987817    5.213421
     96          1           0       -6.247104   -4.921034   -1.804408
     97          1           0       -4.191055   -5.006609    0.107667
     98          1           0       -6.077576    5.590242    0.134407
     99          1           0       -5.966410    2.955537   -0.853465
 ---------------------------------------------------------------------
 Rotational constants (GHZ):           0.0723784           0.0429958           0.0339845
 Standard basis: def2TZVP (5D, 7F)
 There are  2206 symmetry adapted cartesian basis functions of A   symmetry.
 There are  1939 symmetry adapted basis functions of A   symmetry.
  1939 basis functions,  3140 primitive gaussians,  2206 cartesian basis functions
   204 alpha electrons      203 beta electrons
       nuclear repulsion energy      8930.8067496212 Hartrees.
 NAtoms=   99 NActive=   99 NUniq=   99 SFac= 1.00D+00 NAtFMM=   60 NAOKFM=T Big=T
 Integral buffers will be    131072 words long.
 Raffenetti 2 integral format.
 Two-electron integral symmetry is turned on.
 Nuclear repulsion after empirical dispersion term =     8930.6559270353 Hartrees.
 ------------------------------------------------------------------------------
 Polarizable Continuum Model (PCM)
 =================================
 Model                : PCM.
 Atomic radii         : SMD-Coulomb.
 Polarization charges : Total charges.
 Charge compensation  : None.
 Solution method      : On-the-fly selection.
 Cavity type          : VdW (van der Waals Surface) (Alpha=1.000).
 Cavity algorithm     : GePol (No added spheres)
                        Default sphere list used, NSphG=   99.
                        Lebedev-Laikov grids with approx.  5.0 points / Ang**2.
                        Smoothing algorithm: York/Karplus (Gamma=1.0000).
                        Polarization charges: spherical gaussians, with
                                              point-specific exponents (IZeta= 3).
                        Self-potential: point-specific (ISelfS= 7).
                        Self-field    : sphere-specific E.n sum rule (ISelfD= 2).
 Solvent              : Chloroform, Eps=   4.711300 Eps(inf)=   2.090627
 ------------------------------------------------------------------------------
 ------------------------------------------------------------------------------
 Atomic radii for non-electrostatic terms: SMD-CDS.
 ------------------------------------------------------------------------------
 Nuclear repulsion after PCM non-electrostatic terms =     8930.6374891658 Hartrees.
 One-electron integrals computed using PRISM.
   1 Symmetry operations used in ECPInt.
 ECPInt:  NShTT=  299151 NPrTT=  925475 LenC2=  220277 LenP2D=  440878.
 LDataN:  DoStor=T MaxTD1= 6 Len=  172
 NBasis=  1939 RedAO= T EigKep=  2.66D-06  NBF=  1939
 NBsUse=  1939 1.00D-06 EigRej= -1.00D+00 NBFU=  1939
 Initial guess from the checkpoint file:  "1qpu_III_D.chk"
 B after Tr=     0.000000    0.000000   -0.000000
         Rot=    1.000000    0.000000    0.000000    0.000000 Ang=   0.00 deg.
 Initial guess <Sx>= 0.0000 <Sy>= 0.0000 <Sz>= 0.5000 <S**2>= 0.8628 S= 0.5549
 Requested convergence on RMS density matrix=1.00D-08 within 128 cycles.
 Requested convergence on MAX density matrix=1.00D-06.
 Requested convergence on             energy=1.00D-06.
 No special actions if energy rises.
 Inv3:  Mode=1 IEnd=   138924075.
 Iteration    1 A*A^-1 deviation from unit magnitude is 4.00D-15 for    625.
 Iteration    1 A*A^-1 deviation from orthogonality  is 2.63D-15 for   2314    607.
 Iteration    1 A^-1*A deviation from unit magnitude is 3.89D-15 for    761.
 Iteration    1 A^-1*A deviation from orthogonality  is 7.49D-15 for   5346   5326.
 EnCoef did     4 forward-backward iterations
 EnCoef did     2 forward-backward iterations
 Restarting incremental Fock formation.
 Restarting incremental Fock formation.
 Error on total polarization charges =  0.07810
 SCF Done:  E(UPBE1PBE) =  -3879.11082708     A.U. after   45 cycles
            NFock= 45  Conv=0.15D-08     -V/T= 2.0033
 <Sx>= 0.0000 <Sy>= 0.0000 <Sz>= 0.5000 <S**2>= 0.8000 S= 0.5247
 <L.S>= 0.000000000000E+00
 SMD-CDS (non-electrostatic) energy       (kcal/mol) =     -11.57
 (included in total energy above)
 Annihilation of the first spin contaminant:
 S**2 before annihilation     0.8000,   after     0.7508

 **********************************************************************

            Population analysis using the SCF density.

 **********************************************************************

 Orbital symmetries:
 Alpha Orbitals:
       Occupied  (A) (A) (A) (A) (A) (A) (A) (A) (A) (A) (A) (A)
                 (A) (A) (A) (A) (A) (A) (A) (A) (A) (A) (A) (A)
                 (A) (A) (A) (A) (A) (A) (A) (A) (A) (A) (A) (A)
                 (A) (A) (A) (A) (A) (A) (A) (A) (A) (A) (A) (A)
                 (A) (A) (A) (A) (A) (A) (A) (A) (A) (A) (A) (A)
                 (A) (A) (A) (A) (A) (A) (A) (A) (A) (A) (A) (A)
                 (A) (A) (A) (A) (A) (A) (A) (A) (A) (A) (A) (A)
                 (A) (A) (A) (A) (A) (A) (A) (A) (A) (A) (A) (A)
                 (A) (A) (A) (A) (A) (A) (A) (A) (A) (A) (A) (A)
                 (A) (A) (A) (A) (A) (A) (A) (A) (A) (A) (A) (A)
                 (A) (A) (A) (A) (A) (A) (A) (A) (A) (A) (A) (A)
                 (A) (A) (A) (A) (A) (A) (A) (A) (A) (A) (A) (A)
                 (A) (A) (A) (A) (A) (A) (A) (A) (A) (A) (A) (A)
                 (A) (A) (A) (A) (A) (A) (A) (A) (A) (A) (A) (A)
                 (A) (A) (A) (A) (A) (A) (A) (A) (A) (A) (A) (A)
                 (A) (A) (A) (A) (A) (A) (A) (A) (A) (A) (A) (A)
                 (A) (A) (A) (A) (A) (A) (A) (A) (A) (A) (A) (A)
       Virtual   (A) (A) (A) (A) (A) (A) (A) (A) (A) (A) (A) (A)
                 (A) (A) (A) (A) (A) (A) (A) (A) (A) (A) (A) (A)
                 (A) (A) (A) (A) (A) (A) (A) (A) (A) (A) (A) (A)
                 (A) (A) (A) (A) (A) (A) (A) (A) (A) (A) (A) (A)
                 (A) (A) (A) (A) (A) (A) (A) (A) (A) (A) (A) (A)
                 (A) (A) (A) (A) (A) (A) (A) (A) (A) (A) (A) (A)
                 (A) (A) (A) (A) (A) (A) (A) (A) (A) (A) (A) (A)
                 (A) (A) (A) (A) (A) (A) (A) (A) (A) (A) (A) (A)
                 (A) (A) (A) (A) (A) (A) (A) (A) (A) (A) (A) (A)
                 (A) (A) (A) (A) (A) (A) (A) (A) (A) (A) (A) (A)
                 (A) (A) (A) (A) (A) (A) (A) (A) (A) (A) (A) (A)
                 (A) (A) (A) (A) (A) (A) (A) (A) (A) (A) (A) (A)
                 (A) (A) (A) (A) (A) (A) (A) (A) (A) (A) (A) (A)
                 (A) (A) (A) (A) (A) (A) (A) (A) (A) (A) (A) (A)
                 (A) (A) (A) (A) (A) (A) (A) (A) (A) (A) (A) (A)
                 (A) (A) (A) (A) (A) (A) (A) (A) (A) (A) (A) (A)
                 (A) (A) (A) (A) (A) (A) (A) (A) (A) (A) (A) (A)
                 (A) (A) (A) (A) (A) (A) (A) (A) (A) (A) (A) (A)
                 (A) (A) (A) (A) (A) (A) (A) (A) (A) (A) (A) (A)
                 (A) (A) (A) (A) (A) (A) (A) (A) (A) (A) (A) (A)
                 (A) (A) (A) (A) (A) (A) (A) (A) (A) (A) (A) (A)
                 (A) (A) (A) (A) (A) (A) (A) (A) (A) (A) (A) (A)
                 (A) (A) (A) (A) (A) (A) (A) (A) (A) (A) (A) (A)
                 (A) (A) (A) (A) (A) (A) (A) (A) (A) (A) (A) (A)
                 (A) (A) (A) (A) (A) (A) (A) (A) (A) (A) (A) (A)
                 (A) (A) (A) (A) (A) (A) (A) (A) (A) (A) (A) (A)
                 (A) (A) (A) (A) (A) (A) (A) (A) (A) (A) (A) (A)
                 (A) (A) (A) (A) (A) (A) (A) (A) (A) (A) (A) (A)
                 (A) (A) (A) (A) (A) (A) (A) (A) (A) (A) (A) (A)
                 (A) (A) (A) (A) (A) (A) (A) (A) (A) (A) (A) (A)
                 (A) (A) (A) (A) (A) (A) (A) (A) (A) (A) (A) (A)
                 (A) (A) (A) (A) (A) (A) (A) (A) (A) (A) (A) (A)
                 (A) (A) (A) (A) (A) (A) (A) (A) (A) (A) (A) (A)
                 (A) (A) (A) (A) (A) (A) (A) (A) (A) (A) (A) (A)
                 (A) (A) (A) (A) (A) (A) (A) (A) (A) (A) (A) (A)
                 (A) (A) (A) (A) (A) (A) (A) (A) (A) (A) (A) (A)
                 (A) (A) (A) (A) (A) (A) (A) (A) (A) (A) (A) (A)
                 (A) (A) (A) (A) (A) (A) (A) (A) (A) (A) (A) (A)
                 (A) (A) (A) (A) (A) (A) (A) (A) (A) (A) (A) (A)
                 (A) (A) (A) (A) (A) (A) (A) (A) (A) (A) (A) (A)
                 (A) (A) (A) (A) (A) (A) (A) (A) (A) (A) (A) (A)
                 (A) (A) (A) (A) (A) (A) (A) (A) (A) (A) (A) (A)
                 (A) (A) (A) (A) (A) (A) (A) (A) (A) (A) (A) (A)
                 (A) (A) (A) (A) (A) (A) (A) (A) (A) (A) (A) (A)
                 (A) (A) (A) (A) (A) (A) (A) (A) (A) (A) (A) (A)
                 (A) (A) (A) (A) (A) (A) (A) (A) (A) (A) (A) (A)
                 (A) (A) (A) (A) (A) (A) (A) (A) (A) (A) (A) (A)
                 (A) (A) (A) (A) (A) (A) (A) (A) (A) (A) (A) (A)
                 (A) (A) (A) (A) (A) (A) (A) (A) (A) (A) (A) (A)
                 (A) (A) (A) (A) (A) (A) (A) (A) (A) (A) (A) (A)
                 (A) (A) (A) (A) (A) (A) (A) (A) (A) (A) (A) (A)
                 (A) (A) (A) (A) (A) (A) (A) (A) (A) (A) (A) (A)
                 (A) (A) (A) (A) (A) (A) (A) (A) (A) (A) (A) (A)
                 (A) (A) (A) (A) (A) (A) (A) (A) (A) (A) (A) (A)
                 (A) (A) (A) (A) (A) (A) (A) (A) (A) (A) (A) (A)
                 (A) (A) (A) (A) (A) (A) (A) (A) (A) (A) (A) (A)
                 (A) (A) (A) (A) (A) (A) (A) (A) (A) (A) (A) (A)
                 (A) (A) (A) (A) (A) (A) (A) (A) (A) (A) (A) (A)
                 (A) (A) (A) (A) (A) (A) (A) (A) (A) (A) (A) (A)
                 (A) (A) (A) (A) (A) (A) (A) (A) (A) (A) (A) (A)
                 (A) (A) (A) (A) (A) (A) (A) (A) (A) (A) (A) (A)
                 (A) (A) (A) (A) (A) (A) (A) (A) (A) (A) (A) (A)
                 (A) (A) (A) (A) (A) (A) (A) (A) (A) (A) (A) (A)
                 (A) (A) (A) (A) (A) (A) (A) (A) (A) (A) (A) (A)
                 (A) (A) (A) (A) (A) (A) (A) (A) (A) (A) (A) (A)
                 (A) (A) (A) (A) (A) (A) (A) (A) (A) (A) (A) (A)
                 (A) (A) (A) (A) (A) (A) (A) (A) (A) (A) (A) (A)
                 (A) (A) (A) (A) (A) (A) (A) (A) (A) (A) (A) (A)
                 (A) (A) (A) (A) (A) (A) (A) (A) (A) (A) (A) (A)
                 (A) (A) (A) (A) (A) (A) (A) (A) (A) (A) (A) (A)
                 (A) (A) (A) (A) (A) (A) (A) (A) (A) (A) (A) (A)
                 (A) (A) (A) (A) (A) (A) (A) (A) (A) (A) (A) (A)
                 (A) (A) (A) (A) (A) (A) (A) (A) (A) (A) (A) (A)
                 (A) (A) (A) (A) (A) (A) (A) (A) (A) (A) (A) (A)
                 (A) (A) (A) (A) (A) (A) (A) (A) (A) (A) (A) (A)
                 (A) (A) (A) (A) (A) (A) (A) (A) (A) (A) (A) (A)
                 (A) (A) (A) (A) (A) (A) (A) (A) (A) (A) (A) (A)
                 (A) (A) (A) (A) (A) (A) (A) (A) (A) (A) (A) (A)
                 (A) (A) (A) (A) (A) (A) (A) (A) (A) (A) (A) (A)
                 (A) (A) (A) (A) (A) (A) (A) (A) (A) (A) (A) (A)
                 (A) (A) (A) (A) (A) (A) (A) (A) (A) (A) (A) (A)
                 (A) (A) (A) (A) (A) (A) (A) (A) (A) (A) (A) (A)
                 (A) (A) (A) (A) (A) (A) (A) (A) (A) (A) (A) (A)
                 (A) (A) (A) (A) (A) (A) (A) (A) (A) (A) (A) (A)
                 (A) (A) (A) (A) (A) (A) (A) (A) (A) (A) (A) (A)
                 (A) (A) (A) (A) (A) (A) (A) (A) (A) (A) (A) (A)
                 (A) (A) (A) (A) (A) (A) (A) (A) (A) (A) (A) (A)
                 (A) (A) (A) (A) (A) (A) (A) (A) (A) (A) (A) (A)
                 (A) (A) (A) (A) (A) (A) (A) (A) (A) (A) (A) (A)
                 (A) (A) (A) (A) (A) (A) (A) (A) (A) (A) (A) (A)
                 (A) (A) (A) (A) (A) (A) (A) (A) (A) (A) (A) (A)
                 (A) (A) (A) (A) (A) (A) (A) (A) (A) (A) (A) (A)
                 (A) (A) (A) (A) (A) (A) (A) (A) (A) (A) (A) (A)
                 (A) (A) (A) (A) (A) (A) (A) (A) (A) (A) (A) (A)
                 (A) (A) (A) (A) (A) (A) (A) (A) (A) (A) (A) (A)
                 (A) (A) (A) (A) (A) (A) (A) (A) (A) (A) (A) (A)
                 (A) (A) (A) (A) (A) (A) (A) (A) (A) (A) (A) (A)
                 (A) (A) (A) (A) (A) (A) (A) (A) (A) (A) (A) (A)
                 (A) (A) (A) (A) (A) (A) (A) (A) (A) (A) (A) (A)
                 (A) (A) (A) (A) (A) (A) (A) (A) (A) (A) (A) (A)
                 (A) (A) (A) (A) (A) (A) (A) (A) (A) (A) (A) (A)
                 (A) (A) (A) (A) (A) (A) (A) (A) (A) (A) (A) (A)
                 (A) (A) (A) (A) (A) (A) (A) (A) (A) (A) (A) (A)
                 (A) (A) (A) (A) (A) (A) (A) (A) (A) (A) (A) (A)
                 (A) (A) (A) (A) (A) (A) (A) (A) (A) (A) (A) (A)
                 (A) (A) (A) (A) (A) (A) (A) (A) (A) (A) (A) (A)
                 (A) (A) (A) (A) (A) (A) (A) (A) (A) (A) (A) (A)
                 (A) (A) (A) (A) (A) (A) (A) (A) (A) (A) (A) (A)
                 (A) (A) (A) (A) (A) (A) (A) (A) (A) (A) (A) (A)
                 (A) (A) (A) (A) (A) (A) (A) (A) (A) (A) (A) (A)
                 (A) (A) (A) (A) (A) (A) (A) (A) (A) (A) (A) (A)
                 (A) (A) (A) (A) (A) (A) (A) (A) (A) (A) (A) (A)
                 (A) (A) (A) (A) (A) (A) (A) (A) (A) (A) (A) (A)
                 (A) (A) (A) (A) (A) (A) (A) (A) (A) (A) (A) (A)
                 (A) (A) (A) (A) (A) (A) (A) (A) (A) (A) (A) (A)
                 (A) (A) (A) (A) (A) (A) (A) (A) (A) (A) (A) (A)
                 (A) (A) (A) (A) (A) (A) (A) (A) (A) (A) (A) (A)
                 (A) (A) (A) (A) (A) (A) (A) (A) (A) (A) (A) (A)
                 (A) (A) (A) (A) (A) (A) (A) (A) (A) (A) (A) (A)
                 (A) (A) (A) (A) (A) (A) (A) (A) (A) (A) (A) (A)
                 (A) (A) (A) (A) (A) (A) (A) (A) (A) (A) (A) (A)
                 (A) (A) (A) (A) (A) (A) (A) (A) (A) (A) (A) (A)
                 (A) (A) (A) (A) (A) (A) (A) (A) (A) (A) (A) (A)
                 (A) (A) (A) (A) (A) (A) (A) (A) (A) (A) (A) (A)
                 (A) (A) (A) (A) (A) (A) (A) (A) (A) (A) (A) (A)
                 (A) (A) (A) (A) (A) (A) (A) (A) (A) (A) (A) (A)
                 (A) (A) (A) (A) (A) (A) (A) (A) (A) (A) (A) (A)
                 (A) (A) (A) (A) (A) (A) (A) (A) (A) (A) (A) (A)
                 (A) (A) (A) (A) (A) (A) (A) (A) (A) (A) (A) (A)
                 (A) (A) (A) (A) (A) (A) (A) (A) (A) (A) (A) (A)
                 (A) (A) (A) (A) (A) (A) (A) (A) (A) (A) (A) (A)
                 (A) (A) (A) (A) (A) (A) (A) (A) (A) (A) (A) (A)
                 (A) (A) (A) (A) (A) (A) (A) (A) (A) (A) (A) (A)
                 (A) (A) (A) (A) (A) (A) (A) (A) (A) (A) (A) (A)
                 (A) (A) (A) (A) (A) (A) (A) (A) (A) (A) (A) (A)
                 (A) (A) (A) (A) (A) (A) (A) (A) (A) (A) (A) (A)
                 (A) (A) (A) (A) (A) (A) (A) (A) (A) (A) (A) (A)
                 (A) (A) (A) (A) (A) (A) (A) (A) (A) (A) (A) (A)
                 (A) (A) (A) (A) (A) (A) (A) (A) (A) (A) (A) (A)
                 (A) (A) (A) (A) (A) (A) (A) (A) (A) (A) (A) (A)
                 (A) (A) (A) (A) (A) (A) (A) (A) (A) (A) (A) (A)
                 (A) (A) (A) (A) (A) (A) (A) (A) (A) (A) (A) (A)
                 (A) (A) (A) (A) (A) (A) (A) (A) (A) (A) (A) (A)
                 (A) (A) (A) (A) (A) (A) (A) (A) (A) (A) (A) (A)
                 (A) (A) (A) (A) (A) (A) (A)
 Beta  Orbitals:
       Occupied  (A) (A) (A) (A) (A) (A) (A) (A) (A) (A) (A) (A)
                 (A) (A) (A) (A) (A) (A) (A) (A) (A) (A) (A) (A)
                 (A) (A) (A) (A) (A) (A) (A) (A) (A) (A) (A) (A)
                 (A) (A) (A) (A) (A) (A) (A) (A) (A) (A) (A) (A)
                 (A) (A) (A) (A) (A) (A) (A) (A) (A) (A) (A) (A)
                 (A) (A) (A) (A) (A) (A) (A) (A) (A) (A) (A) (A)
                 (A) (A) (A) (A) (A) (A) (A) (A) (A) (A) (A) (A)
                 (A) (A) (A) (A) (A) (A) (A) (A) (A) (A) (A) (A)
                 (A) (A) (A) (A) (A) (A) (A) (A) (A) (A) (A) (A)
                 (A) (A) (A) (A) (A) (A) (A) (A) (A) (A) (A) (A)
                 (A) (A) (A) (A) (A) (A) (A) (A) (A) (A) (A) (A)
                 (A) (A) (A) (A) (A) (A) (A) (A) (A) (A) (A) (A)
                 (A) (A) (A) (A) (A) (A) (A) (A) (A) (A) (A) (A)
                 (A) (A) (A) (A) (A) (A) (A) (A) (A) (A) (A) (A)
                 (A) (A) (A) (A) (A) (A) (A) (A) (A) (A) (A) (A)
                 (A) (A) (A) (A) (A) (A) (A) (A) (A) (A) (A) (A)
                 (A) (A) (A) (A) (A) (A) (A) (A) (A) (A) (A)
       Virtual   (A) (A) (A) (A) (A) (A) (A) (A) (A) (A) (A) (A)
                 (A) (A) (A) (A) (A) (A) (A) (A) (A) (A) (A) (A)
                 (A) (A) (A) (A) (A) (A) (A) (A) (A) (A) (A) (A)
                 (A) (A) (A) (A) (A) (A) (A) (A) (A) (A) (A) (A)
                 (A) (A) (A) (A) (A) (A) (A) (A) (A) (A) (A) (A)
                 (A) (A) (A) (A) (A) (A) (A) (A) (A) (A) (A) (A)
                 (A) (A) (A) (A) (A) (A) (A) (A) (A) (A) (A) (A)
                 (A) (A) (A) (A) (A) (A) (A) (A) (A) (A) (A) (A)
                 (A) (A) (A) (A) (A) (A) (A) (A) (A) (A) (A) (A)
                 (A) (A) (A) (A) (A) (A) (A) (A) (A) (A) (A) (A)
                 (A) (A) (A) (A) (A) (A) (A) (A) (A) (A) (A) (A)
                 (A) (A) (A) (A) (A) (A) (A) (A) (A) (A) (A) (A)
                 (A) (A) (A) (A) (A) (A) (A) (A) (A) (A) (A) (A)
                 (A) (A) (A) (A) (A) (A) (A) (A) (A) (A) (A) (A)
                 (A) (A) (A) (A) (A) (A) (A) (A) (A) (A) (A) (A)
                 (A) (A) (A) (A) (A) (A) (A) (A) (A) (A) (A) (A)
                 (A) (A) (A) (A) (A) (A) (A) (A) (A) (A) (A) (A)
                 (A) (A) (A) (A) (A) (A) (A) (A) (A) (A) (A) (A)
                 (A) (A) (A) (A) (A) (A) (A) (A) (A) (A) (A) (A)
                 (A) (A) (A) (A) (A) (A) (A) (A) (A) (A) (A) (A)
                 (A) (A) (A) (A) (A) (A) (A) (A) (A) (A) (A) (A)
                 (A) (A) (A) (A) (A) (A) (A) (A) (A) (A) (A) (A)
                 (A) (A) (A) (A) (A) (A) (A) (A) (A) (A) (A) (A)
                 (A) (A) (A) (A) (A) (A) (A) (A) (A) (A) (A) (A)
                 (A) (A) (A) (A) (A) (A) (A) (A) (A) (A) (A) (A)
                 (A) (A) (A) (A) (A) (A) (A) (A) (A) (A) (A) (A)
                 (A) (A) (A) (A) (A) (A) (A) (A) (A) (A) (A) (A)
                 (A) (A) (A) (A) (A) (A) (A) (A) (A) (A) (A) (A)
                 (A) (A) (A) (A) (A) (A) (A) (A) (A) (A) (A) (A)
                 (A) (A) (A) (A) (A) (A) (A) (A) (A) (A) (A) (A)
                 (A) (A) (A) (A) (A) (A) (A) (A) (A) (A) (A) (A)
                 (A) (A) (A) (A) (A) (A) (A) (A) (A) (A) (A) (A)
                 (A) (A) (A) (A) (A) (A) (A) (A) (A) (A) (A) (A)
                 (A) (A) (A) (A) (A) (A) (A) (A) (A) (A) (A) (A)
                 (A) (A) (A) (A) (A) (A) (A) (A) (A) (A) (A) (A)
                 (A) (A) (A) (A) (A) (A) (A) (A) (A) (A) (A) (A)
                 (A) (A) (A) (A) (A) (A) (A) (A) (A) (A) (A) (A)
                 (A) (A) (A) (A) (A) (A) (A) (A) (A) (A) (A) (A)
                 (A) (A) (A) (A) (A) (A) (A) (A) (A) (A) (A) (A)
                 (A) (A) (A) (A) (A) (A) (A) (A) (A) (A) (A) (A)
                 (A) (A) (A) (A) (A) (A) (A) (A) (A) (A) (A) (A)
                 (A) (A) (A) (A) (A) (A) (A) (A) (A) (A) (A) (A)
                 (A) (A) (A) (A) (A) (A) (A) (A) (A) (A) (A) (A)
                 (A) (A) (A) (A) (A) (A) (A) (A) (A) (A) (A) (A)
                 (A) (A) (A) (A) (A) (A) (A) (A) (A) (A) (A) (A)
                 (A) (A) (A) (A) (A) (A) (A) (A) (A) (A) (A) (A)
                 (A) (A) (A) (A) (A) (A) (A) (A) (A) (A) (A) (A)
                 (A) (A) (A) (A) (A) (A) (A) (A) (A) (A) (A) (A)
                 (A) (A) (A) (A) (A) (A) (A) (A) (A) (A) (A) (A)
                 (A) (A) (A) (A) (A) (A) (A) (A) (A) (A) (A) (A)
                 (A) (A) (A) (A) (A) (A) (A) (A) (A) (A) (A) (A)
                 (A) (A) (A) (A) (A) (A) (A) (A) (A) (A) (A) (A)
                 (A) (A) (A) (A) (A) (A) (A) (A) (A) (A) (A) (A)
                 (A) (A) (A) (A) (A) (A) (A) (A) (A) (A) (A) (A)
                 (A) (A) (A) (A) (A) (A) (A) (A) (A) (A) (A) (A)
                 (A) (A) (A) (A) (A) (A) (A) (A) (A) (A) (A) (A)
                 (A) (A) (A) (A) (A) (A) (A) (A) (A) (A) (A) (A)
                 (A) (A) (A) (A) (A) (A) (A) (A) (A) (A) (A) (A)
                 (A) (A) (A) (A) (A) (A) (A) (A) (A) (A) (A) (A)
                 (A) (A) (A) (A) (A) (A) (A) (A) (A) (A) (A) (A)
                 (A) (A) (A) (A) (A) (A) (A) (A) (A) (A) (A) (A)
                 (A) (A) (A) (A) (A) (A) (A) (A) (A) (A) (A) (A)
                 (A) (A) (A) (A) (A) (A) (A) (A) (A) (A) (A) (A)
                 (A) (A) (A) (A) (A) (A) (A) (A) (A) (A) (A) (A)
                 (A) (A) (A) (A) (A) (A) (A) (A) (A) (A) (A) (A)
                 (A) (A) (A) (A) (A) (A) (A) (A) (A) (A) (A) (A)
                 (A) (A) (A) (A) (A) (A) (A) (A) (A) (A) (A) (A)
                 (A) (A) (A) (A) (A) (A) (A) (A) (A) (A) (A) (A)
                 (A) (A) (A) (A) (A) (A) (A) (A) (A) (A) (A) (A)
                 (A) (A) (A) (A) (A) (A) (A) (A) (A) (A) (A) (A)
                 (A) (A) (A) (A) (A) (A) (A) (A) (A) (A) (A) (A)
                 (A) (A) (A) (A) (A) (A) (A) (A) (A) (A) (A) (A)
                 (A) (A) (A) (A) (A) (A) (A) (A) (A) (A) (A) (A)
                 (A) (A) (A) (A) (A) (A) (A) (A) (A) (A) (A) (A)
                 (A) (A) (A) (A) (A) (A) (A) (A) (A) (A) (A) (A)
                 (A) (A) (A) (A) (A) (A) (A) (A) (A) (A) (A) (A)
                 (A) (A) (A) (A) (A) (A) (A) (A) (A) (A) (A) (A)
                 (A) (A) (A) (A) (A) (A) (A) (A) (A) (A) (A) (A)
                 (A) (A) (A) (A) (A) (A) (A) (A) (A) (A) (A) (A)
                 (A) (A) (A) (A) (A) (A) (A) (A) (A) (A) (A) (A)
                 (A) (A) (A) (A) (A) (A) (A) (A) (A) (A) (A) (A)
                 (A) (A) (A) (A) (A) (A) (A) (A) (A) (A) (A) (A)
                 (A) (A) (A) (A) (A) (A) (A) (A) (A) (A) (A) (A)
                 (A) (A) (A) (A) (A) (A) (A) (A) (A) (A) (A) (A)
                 (A) (A) (A) (A) (A) (A) (A) (A) (A) (A) (A) (A)
                 (A) (A) (A) (A) (A) (A) (A) (A) (A) (A) (A) (A)
                 (A) (A) (A) (A) (A) (A) (A) (A) (A) (A) (A) (A)
                 (A) (A) (A) (A) (A) (A) (A) (A) (A) (A) (A) (A)
                 (A) (A) (A) (A) (A) (A) (A) (A) (A) (A) (A) (A)
                 (A) (A) (A) (A) (A) (A) (A) (A) (A) (A) (A) (A)
                 (A) (A) (A) (A) (A) (A) (A) (A) (A) (A) (A) (A)
                 (A) (A) (A) (A) (A) (A) (A) (A) (A) (A) (A) (A)
                 (A) (A) (A) (A) (A) (A) (A) (A) (A) (A) (A) (A)
                 (A) (A) (A) (A) (A) (A) (A) (A) (A) (A) (A) (A)
                 (A) (A) (A) (A) (A) (A) (A) (A) (A) (A) (A) (A)
                 (A) (A) (A) (A) (A) (A) (A) (A) (A) (A) (A) (A)
                 (A) (A) (A) (A) (A) (A) (A) (A) (A) (A) (A) (A)
                 (A) (A) (A) (A) (A) (A) (A) (A) (A) (A) (A) (A)
                 (A) (A) (A) (A) (A) (A) (A) (A) (A) (A) (A) (A)
                 (A) (A) (A) (A) (A) (A) (A) (A) (A) (A) (A) (A)
                 (A) (A) (A) (A) (A) (A) (A) (A) (A) (A) (A) (A)
                 (A) (A) (A) (A) (A) (A) (A) (A) (A) (A) (A) (A)
                 (A) (A) (A) (A) (A) (A) (A) (A) (A) (A) (A) (A)
                 (A) (A) (A) (A) (A) (A) (A) (A) (A) (A) (A) (A)
                 (A) (A) (A) (A) (A) (A) (A) (A) (A) (A) (A) (A)
                 (A) (A) (A) (A) (A) (A) (A) (A) (A) (A) (A) (A)
                 (A) (A) (A) (A) (A) (A) (A) (A) (A) (A) (A) (A)
                 (A) (A) (A) (A) (A) (A) (A) (A) (A) (A) (A) (A)
                 (A) (A) (A) (A) (A) (A) (A) (A) (A) (A) (A) (A)
                 (A) (A) (A) (A) (A) (A) (A) (A) (A) (A) (A) (A)
                 (A) (A) (A) (A) (A) (A) (A) (A) (A) (A) (A) (A)
                 (A) (A) (A) (A) (A) (A) (A) (A) (A) (A) (A) (A)
                 (A) (A) (A) (A) (A) (A) (A) (A) (A) (A) (A) (A)
                 (A) (A) (A) (A) (A) (A) (A) (A) (A) (A) (A) (A)
                 (A) (A) (A) (A) (A) (A) (A) (A) (A) (A) (A) (A)
                 (A) (A) (A) (A) (A) (A) (A) (A) (A) (A) (A) (A)
                 (A) (A) (A) (A) (A) (A) (A) (A) (A) (A) (A) (A)
                 (A) (A) (A) (A) (A) (A) (A) (A) (A) (A) (A) (A)
                 (A) (A) (A) (A) (A) (A) (A) (A) (A) (A) (A) (A)
                 (A) (A) (A) (A) (A) (A) (A) (A) (A) (A) (A) (A)
                 (A) (A) (A) (A) (A) (A) (A) (A) (A) (A) (A) (A)
                 (A) (A) (A) (A) (A) (A) (A) (A) (A) (A) (A) (A)
                 (A) (A) (A) (A) (A) (A) (A) (A) (A) (A) (A) (A)
                 (A) (A) (A) (A) (A) (A) (A) (A) (A) (A) (A) (A)
                 (A) (A) (A) (A) (A) (A) (A) (A) (A) (A) (A) (A)
                 (A) (A) (A) (A) (A) (A) (A) (A) (A) (A) (A) (A)
                 (A) (A) (A) (A) (A) (A) (A) (A) (A) (A) (A) (A)
                 (A) (A) (A) (A) (A) (A) (A) (A) (A) (A) (A) (A)
                 (A) (A) (A) (A) (A) (A) (A) (A) (A) (A) (A) (A)
                 (A) (A) (A) (A) (A) (A) (A) (A) (A) (A) (A) (A)
                 (A) (A) (A) (A) (A) (A) (A) (A) (A) (A) (A) (A)
                 (A) (A) (A) (A) (A) (A) (A) (A) (A) (A) (A) (A)
                 (A) (A) (A) (A) (A) (A) (A) (A) (A) (A) (A) (A)
                 (A) (A) (A) (A) (A) (A) (A) (A) (A) (A) (A) (A)
                 (A) (A) (A) (A) (A) (A) (A) (A) (A) (A) (A) (A)
                 (A) (A) (A) (A) (A) (A) (A) (A) (A) (A) (A) (A)
                 (A) (A) (A) (A) (A) (A) (A) (A) (A) (A) (A) (A)
                 (A) (A) (A) (A) (A) (A) (A) (A) (A) (A) (A) (A)
                 (A) (A) (A) (A) (A) (A) (A) (A) (A) (A) (A) (A)
                 (A) (A) (A) (A) (A) (A) (A) (A) (A) (A) (A) (A)
                 (A) (A) (A) (A) (A) (A) (A) (A) (A) (A) (A) (A)
                 (A) (A) (A) (A) (A) (A) (A) (A) (A) (A) (A) (A)
                 (A) (A) (A) (A) (A) (A) (A) (A) (A) (A) (A) (A)
                 (A) (A) (A) (A) (A) (A) (A) (A) (A) (A) (A) (A)
                 (A) (A) (A) (A) (A) (A) (A) (A)
 The electronic state is 2-A.
 Alpha  occ. eigenvalues -- -256.35373 -89.03813 -30.12170 -25.95005 -25.94705
 Alpha  occ. eigenvalues --  -25.94543 -19.27574 -19.26197 -19.20150 -19.19697
 Alpha  occ. eigenvalues --  -14.45744 -14.42130 -14.41903 -14.39826 -14.39585
 Alpha  occ. eigenvalues --  -14.39183 -10.36909 -10.36686 -10.32763 -10.29749
 Alpha  occ. eigenvalues --  -10.28904 -10.28542 -10.28120 -10.28026 -10.27946
 Alpha  occ. eigenvalues --  -10.27917 -10.27878 -10.27704 -10.27644 -10.27243
 Alpha  occ. eigenvalues --  -10.27233 -10.26568 -10.26240 -10.25981 -10.25535
 Alpha  occ. eigenvalues --  -10.25431 -10.25271 -10.25044 -10.24988 -10.24916
 Alpha  occ. eigenvalues --  -10.24878 -10.24148 -10.23988 -10.23844 -10.23775
 Alpha  occ. eigenvalues --  -10.23704 -10.23676 -10.23468 -10.23458 -10.23317
 Alpha  occ. eigenvalues --  -10.23247 -10.22960 -10.22948 -10.22345 -10.22266
 Alpha  occ. eigenvalues --  -10.22186 -10.21417  -8.01658  -5.95329  -5.95022
 Alpha  occ. eigenvalues --   -5.94493  -3.46360  -2.22266  -2.21665  -2.21494
 Alpha  occ. eigenvalues --   -1.18247  -1.17290  -1.06924  -1.05226  -1.04382
 Alpha  occ. eigenvalues --   -1.02394  -1.01086  -1.00461  -0.99652  -0.92144
 Alpha  occ. eigenvalues --   -0.87159  -0.86517  -0.85670  -0.85292  -0.84755
 Alpha  occ. eigenvalues --   -0.84483  -0.83776  -0.83563  -0.81566  -0.81195
 Alpha  occ. eigenvalues --   -0.80365  -0.80258  -0.78817  -0.77865  -0.77766
 Alpha  occ. eigenvalues --   -0.76085  -0.75046  -0.73963  -0.73055  -0.72972
 Alpha  occ. eigenvalues --   -0.71591  -0.70760  -0.70583  -0.69013  -0.68639
 Alpha  occ. eigenvalues --   -0.68356  -0.67818  -0.66840  -0.66363  -0.65610
 Alpha  occ. eigenvalues --   -0.63671  -0.63231  -0.62132  -0.61587  -0.61559
 Alpha  occ. eigenvalues --   -0.58885  -0.57938  -0.57570  -0.57204  -0.56499
 Alpha  occ. eigenvalues --   -0.55774  -0.55256  -0.54446  -0.54156  -0.53823
 Alpha  occ. eigenvalues --   -0.52370  -0.52226  -0.51466  -0.51326  -0.50450
 Alpha  occ. eigenvalues --   -0.50133  -0.49620  -0.49490  -0.49308  -0.49076
 Alpha  occ. eigenvalues --   -0.48498  -0.48435  -0.47991  -0.47948  -0.47611
 Alpha  occ. eigenvalues --   -0.47220  -0.46873  -0.46789  -0.46729  -0.46508
 Alpha  occ. eigenvalues --   -0.46430  -0.46018  -0.45578  -0.45157  -0.45050
 Alpha  occ. eigenvalues --   -0.44808  -0.44556  -0.44196  -0.44023  -0.43957
 Alpha  occ. eigenvalues --   -0.43772  -0.43668  -0.43512  -0.43198  -0.42812
 Alpha  occ. eigenvalues --   -0.42627  -0.42558  -0.42302  -0.42094  -0.41965
 Alpha  occ. eigenvalues --   -0.41884  -0.41283  -0.40945  -0.40775  -0.40101
 Alpha  occ. eigenvalues --   -0.39961  -0.39670  -0.39607  -0.39185  -0.39022
 Alpha  occ. eigenvalues --   -0.38462  -0.38298  -0.37745  -0.37234  -0.36921
 Alpha  occ. eigenvalues --   -0.36576  -0.36506  -0.36287  -0.35977  -0.35261
 Alpha  occ. eigenvalues --   -0.34921  -0.34504  -0.34181  -0.33873  -0.33683
 Alpha  occ. eigenvalues --   -0.32596  -0.32163  -0.32099  -0.31324  -0.30473
 Alpha  occ. eigenvalues --   -0.29460  -0.29416  -0.29050  -0.27643  -0.26843
 Alpha  occ. eigenvalues --   -0.26443  -0.25573  -0.24497  -0.24117  -0.23358
 Alpha  occ. eigenvalues --   -0.22483  -0.22018  -0.20298  -0.20224
 Alpha virt. eigenvalues --   -0.14843  -0.10909  -0.09363  -0.08371  -0.03002
 Alpha virt. eigenvalues --   -0.01761  -0.01580  -0.01128   0.00277   0.01033
 Alpha virt. eigenvalues --    0.01336   0.01992   0.02377   0.02819   0.03148
 Alpha virt. eigenvalues --    0.03587   0.03933   0.04047   0.04391   0.04837
 Alpha virt. eigenvalues --    0.05101   0.05313   0.05531   0.05666   0.06089
 Alpha virt. eigenvalues --    0.06438   0.06592   0.06927   0.06989   0.07298
 Alpha virt. eigenvalues --    0.07418   0.07700   0.07913   0.08299   0.08694
 Alpha virt. eigenvalues --    0.08860   0.09032   0.09403   0.09585   0.09861
 Alpha virt. eigenvalues --    0.10034   0.10420   0.10517   0.10652   0.11048
 Alpha virt. eigenvalues --    0.11433   0.11572   0.11839   0.12055   0.12109
 Alpha virt. eigenvalues --    0.12312   0.12379   0.12584   0.12624   0.12755
 Alpha virt. eigenvalues --    0.13140   0.13298   0.13466   0.13609   0.13707
 Alpha virt. eigenvalues --    0.13815   0.14101   0.14325   0.14556   0.14878
 Alpha virt. eigenvalues --    0.14930   0.15097   0.15423   0.15571   0.15600
 Alpha virt. eigenvalues --    0.15715   0.16128   0.16260   0.16719   0.16938
 Alpha virt. eigenvalues --    0.17283   0.17324   0.17631   0.17724   0.17818
 Alpha virt. eigenvalues --    0.17977   0.18380   0.18400   0.18629   0.18668
 Alpha virt. eigenvalues --    0.18974   0.19193   0.19564   0.19690   0.19826
 Alpha virt. eigenvalues --    0.19849   0.20540   0.20646   0.20892   0.21023
 Alpha virt. eigenvalues --    0.21373   0.21545   0.21668   0.21840   0.22089
 Alpha virt. eigenvalues --    0.22137   0.22350   0.22803   0.22954   0.23219
 Alpha virt. eigenvalues --    0.23366   0.23631   0.23877   0.23948   0.24019
 Alpha virt. eigenvalues --    0.24261   0.24484   0.24785   0.24857   0.24963
 Alpha virt. eigenvalues --    0.25116   0.25639   0.25920   0.26013   0.26075
 Alpha virt. eigenvalues --    0.26523   0.26570   0.26972   0.27299   0.27415
 Alpha virt. eigenvalues --    0.27488   0.27817   0.27981   0.28474   0.28514
 Alpha virt. eigenvalues --    0.28605   0.28711   0.28837   0.29158   0.29479
 Alpha virt. eigenvalues --    0.29595   0.29746   0.30072   0.30399   0.30592
 Alpha virt. eigenvalues --    0.30682   0.31031   0.31248   0.31360   0.31471
 Alpha virt. eigenvalues --    0.31577   0.31856   0.32202   0.32404   0.32568
 Alpha virt. eigenvalues --    0.32880   0.33163   0.33398   0.33646   0.33791
 Alpha virt. eigenvalues --    0.34449   0.34541   0.34695   0.34974   0.35100
 Alpha virt. eigenvalues --    0.35214   0.35468   0.35655   0.35766   0.36085
 Alpha virt. eigenvalues --    0.36362   0.36575   0.36750   0.36759   0.37043
 Alpha virt. eigenvalues --    0.37203   0.37519   0.37762   0.37958   0.37978
 Alpha virt. eigenvalues --    0.38301   0.38335   0.38607   0.38777   0.39096
 Alpha virt. eigenvalues --    0.39186   0.39354   0.39551   0.39772   0.40041
 Alpha virt. eigenvalues --    0.40160   0.40183   0.40422   0.40719   0.41106
 Alpha virt. eigenvalues --    0.41180   0.41272   0.41388   0.41608   0.41784
 Alpha virt. eigenvalues --    0.41835   0.42180   0.42293   0.42584   0.42704
 Alpha virt. eigenvalues --    0.42789   0.43164   0.43248   0.43358   0.43550
 Alpha virt. eigenvalues --    0.43686   0.43866   0.44017   0.44137   0.44480
 Alpha virt. eigenvalues --    0.44571   0.44880   0.44927   0.45195   0.45276
 Alpha virt. eigenvalues --    0.45478   0.45577   0.45776   0.45782   0.45859
 Alpha virt. eigenvalues --    0.46363   0.46525   0.46724   0.46848   0.46975
 Alpha virt. eigenvalues --    0.47071   0.47357   0.47407   0.47838   0.47990
 Alpha virt. eigenvalues --    0.48158   0.48206   0.48466   0.48563   0.48638
 Alpha virt. eigenvalues --    0.48771   0.49149   0.49355   0.49403   0.49453
 Alpha virt. eigenvalues --    0.49786   0.49950   0.50205   0.50315   0.50370
 Alpha virt. eigenvalues --    0.50645   0.50835   0.50982   0.51008   0.51287
 Alpha virt. eigenvalues --    0.51520   0.51827   0.51988   0.52248   0.52471
 Alpha virt. eigenvalues --    0.52605   0.52808   0.52976   0.53216   0.53397
 Alpha virt. eigenvalues --    0.53511   0.53598   0.53808   0.54226   0.54251
 Alpha virt. eigenvalues --    0.54578   0.54812   0.55248   0.55320   0.55544
 Alpha virt. eigenvalues --    0.55851   0.56160   0.56250   0.56663   0.56931
 Alpha virt. eigenvalues --    0.57015   0.57435   0.57569   0.57746   0.57958
 Alpha virt. eigenvalues --    0.58196   0.58390   0.58567   0.58700   0.58934
 Alpha virt. eigenvalues --    0.59010   0.59337   0.59435   0.59777   0.60261
 Alpha virt. eigenvalues --    0.60378   0.60497   0.60757   0.60996   0.61137
 Alpha virt. eigenvalues --    0.61292   0.61683   0.61907   0.62115   0.62262
 Alpha virt. eigenvalues --    0.62512   0.62906   0.63174   0.63296   0.63753
 Alpha virt. eigenvalues --    0.63950   0.64308   0.64597   0.64902   0.65029
 Alpha virt. eigenvalues --    0.65298   0.65406   0.66001   0.66100   0.66332
 Alpha virt. eigenvalues --    0.66527   0.67128   0.67229   0.67605   0.67878
 Alpha virt. eigenvalues --    0.67941   0.68039   0.68461   0.68648   0.68967
 Alpha virt. eigenvalues --    0.69154   0.69344   0.69678   0.69918   0.70055
 Alpha virt. eigenvalues --    0.70715   0.70987   0.71255   0.71296   0.71374
 Alpha virt. eigenvalues --    0.71899   0.72232   0.72568   0.72783   0.72830
 Alpha virt. eigenvalues --    0.73216   0.73644   0.73969   0.74054   0.74205
 Alpha virt. eigenvalues --    0.74695   0.74830   0.75190   0.75578   0.75871
 Alpha virt. eigenvalues --    0.76100   0.76427   0.76849   0.77022   0.77168
 Alpha virt. eigenvalues --    0.77283   0.77796   0.78073   0.78306   0.78429
 Alpha virt. eigenvalues --    0.78569   0.78912   0.79525   0.79761   0.79845
 Alpha virt. eigenvalues --    0.80500   0.80814   0.80934   0.81222   0.81401
 Alpha virt. eigenvalues --    0.81712   0.82027   0.82251   0.82690   0.82842
 Alpha virt. eigenvalues --    0.83338   0.83458   0.83578   0.84083   0.84424
 Alpha virt. eigenvalues --    0.84716   0.84918   0.85605   0.85836   0.85996
 Alpha virt. eigenvalues --    0.86196   0.86412   0.86840   0.87055   0.87192
 Alpha virt. eigenvalues --    0.87454   0.87959   0.88174   0.88456   0.88567
 Alpha virt. eigenvalues --    0.88922   0.89162   0.89375   0.89778   0.90156
 Alpha virt. eigenvalues --    0.90246   0.90482   0.90906   0.91066   0.91254
 Alpha virt. eigenvalues --    0.91581   0.91827   0.92150   0.92411   0.92662
 Alpha virt. eigenvalues --    0.92816   0.93273   0.93668   0.93923   0.94220
 Alpha virt. eigenvalues --    0.94584   0.94634   0.94909   0.95055   0.95446
 Alpha virt. eigenvalues --    0.95564   0.95878   0.96357   0.96813   0.97183
 Alpha virt. eigenvalues --    0.97277   0.97483   0.97589   0.97907   0.98295
 Alpha virt. eigenvalues --    0.98385   0.98462   0.99145   0.99503   0.99756
 Alpha virt. eigenvalues --    1.00274   1.00594   1.00754   1.00963   1.01214
 Alpha virt. eigenvalues --    1.01618   1.01633   1.01908   1.02107   1.02340
 Alpha virt. eigenvalues --    1.02708   1.02791   1.03255   1.03444   1.03847
 Alpha virt. eigenvalues --    1.04271   1.04384   1.04663   1.04838   1.04985
 Alpha virt. eigenvalues --    1.05358   1.05429   1.05918   1.06163   1.06784
 Alpha virt. eigenvalues --    1.06968   1.07199   1.07288   1.07554   1.07895
 Alpha virt. eigenvalues --    1.08343   1.08765   1.08998   1.09463   1.09692
 Alpha virt. eigenvalues --    1.09913   1.10161   1.10443   1.10795   1.11002
 Alpha virt. eigenvalues --    1.11204   1.11542   1.11974   1.12336   1.12354
 Alpha virt. eigenvalues --    1.13126   1.13262   1.13788   1.14253   1.14360
 Alpha virt. eigenvalues --    1.14844   1.15091   1.15475   1.16100   1.16461
 Alpha virt. eigenvalues --    1.16698   1.16913   1.16953   1.17632   1.17746
 Alpha virt. eigenvalues --    1.18183   1.18226   1.18357   1.18937   1.19050
 Alpha virt. eigenvalues --    1.19365   1.19658   1.20253   1.20767   1.20974
 Alpha virt. eigenvalues --    1.21148   1.21991   1.22102   1.22542   1.22943
 Alpha virt. eigenvalues --    1.23127   1.23439   1.23843   1.24230   1.24299
 Alpha virt. eigenvalues --    1.24672   1.25068   1.25178   1.25651   1.25952
 Alpha virt. eigenvalues --    1.25968   1.26488   1.26954   1.27193   1.27666
 Alpha virt. eigenvalues --    1.28428   1.28537   1.28837   1.29094   1.29456
 Alpha virt. eigenvalues --    1.29669   1.29868   1.30580   1.30666   1.30935
 Alpha virt. eigenvalues --    1.31348   1.31683   1.32000   1.32509   1.32955
 Alpha virt. eigenvalues --    1.33058   1.33622   1.34256   1.34626   1.34775
 Alpha virt. eigenvalues --    1.35357   1.35696   1.35992   1.36386   1.36989
 Alpha virt. eigenvalues --    1.37314   1.37585   1.38026   1.38297   1.38629
 Alpha virt. eigenvalues --    1.38856   1.39625   1.39989   1.40058   1.40337
 Alpha virt. eigenvalues --    1.40868   1.40890   1.41491   1.41844   1.42174
 Alpha virt. eigenvalues --    1.42552   1.43006   1.43591   1.43872   1.44065
 Alpha virt. eigenvalues --    1.44433   1.44618   1.44979   1.45108   1.45826
 Alpha virt. eigenvalues --    1.46367   1.46516   1.47046   1.47181   1.47441
 Alpha virt. eigenvalues --    1.47698   1.48073   1.48428   1.48623   1.49229
 Alpha virt. eigenvalues --    1.49334   1.49872   1.50115   1.50654   1.50908
 Alpha virt. eigenvalues --    1.51003   1.51514   1.51792   1.52050   1.52448
 Alpha virt. eigenvalues --    1.52688   1.52973   1.53468   1.53835   1.54034
 Alpha virt. eigenvalues --    1.54259   1.54383   1.54699   1.54800   1.55062
 Alpha virt. eigenvalues --    1.55484   1.55786   1.56011   1.56203   1.56421
 Alpha virt. eigenvalues --    1.56604   1.57033   1.57197   1.57393   1.57604
 Alpha virt. eigenvalues --    1.57761   1.58276   1.58429   1.58631   1.58884
 Alpha virt. eigenvalues --    1.59290   1.59470   1.59691   1.59787   1.59926
 Alpha virt. eigenvalues --    1.60184   1.60262   1.60701   1.61137   1.61404
 Alpha virt. eigenvalues --    1.61433   1.61662   1.61926   1.62228   1.62294
 Alpha virt. eigenvalues --    1.62422   1.62773   1.62965   1.63254   1.63513
 Alpha virt. eigenvalues --    1.63777   1.64119   1.64495   1.64540   1.64901
 Alpha virt. eigenvalues --    1.65054   1.65665   1.66052   1.66230   1.66445
 Alpha virt. eigenvalues --    1.66759   1.66874   1.67230   1.67450   1.67688
 Alpha virt. eigenvalues --    1.68074   1.68353   1.68709   1.68892   1.69120
 Alpha virt. eigenvalues --    1.69400   1.69775   1.69867   1.70079   1.70930
 Alpha virt. eigenvalues --    1.71226   1.71338   1.71807   1.71947   1.72118
 Alpha virt. eigenvalues --    1.72933   1.73042   1.73542   1.73800   1.73869
 Alpha virt. eigenvalues --    1.74342   1.74673   1.74774   1.74864   1.75218
 Alpha virt. eigenvalues --    1.75521   1.76166   1.76286   1.77008   1.77354
 Alpha virt. eigenvalues --    1.77677   1.77885   1.78422   1.78627   1.79091
 Alpha virt. eigenvalues --    1.79194   1.79634   1.80080   1.80271   1.80810
 Alpha virt. eigenvalues --    1.81170   1.81570   1.81736   1.82131   1.82484
 Alpha virt. eigenvalues --    1.82762   1.83102   1.83455   1.83564   1.83845
 Alpha virt. eigenvalues --    1.84013   1.84256   1.84337   1.84562   1.85385
 Alpha virt. eigenvalues --    1.85706   1.85792   1.86163   1.86488   1.87182
 Alpha virt. eigenvalues --    1.87326   1.87563   1.88090   1.88137   1.88424
 Alpha virt. eigenvalues --    1.88972   1.89023   1.89547   1.89844   1.89921
 Alpha virt. eigenvalues --    1.90728   1.90960   1.91341   1.91411   1.91841
 Alpha virt. eigenvalues --    1.92210   1.92641   1.93566   1.93756   1.94101
 Alpha virt. eigenvalues --    1.94507   1.94534   1.94888   1.95095   1.95525
 Alpha virt. eigenvalues --    1.95795   1.96044   1.96404   1.96705   1.96841
 Alpha virt. eigenvalues --    1.96890   1.97947   1.98062   1.98781   1.98952
 Alpha virt. eigenvalues --    1.99346   1.99531   1.99991   2.00213   2.00583
 Alpha virt. eigenvalues --    2.00885   2.01366   2.01604   2.01943   2.02129
 Alpha virt. eigenvalues --    2.02572   2.02653   2.02881   2.03305   2.03372
 Alpha virt. eigenvalues --    2.04135   2.04265   2.04786   2.04856   2.05249
 Alpha virt. eigenvalues --    2.05439   2.05800   2.06232   2.06654   2.06995
 Alpha virt. eigenvalues --    2.07486   2.07911   2.08114   2.08217   2.08524
 Alpha virt. eigenvalues --    2.08810   2.09221   2.09549   2.09572   2.10149
 Alpha virt. eigenvalues --    2.10630   2.11021   2.11179   2.11607   2.12066
 Alpha virt. eigenvalues --    2.12326   2.12585   2.12887   2.13388   2.13543
 Alpha virt. eigenvalues --    2.13837   2.14371   2.14623   2.14666   2.15112
 Alpha virt. eigenvalues --    2.15484   2.15678   2.16154   2.16744   2.17143
 Alpha virt. eigenvalues --    2.17625   2.17826   2.18267   2.18886   2.19218
 Alpha virt. eigenvalues --    2.19343   2.19937   2.20239   2.20451   2.21034
 Alpha virt. eigenvalues --    2.21269   2.21452   2.21888   2.22156   2.22491
 Alpha virt. eigenvalues --    2.22808   2.23096   2.23760   2.23909   2.24103
 Alpha virt. eigenvalues --    2.24334   2.24615   2.25274   2.25894   2.26076
 Alpha virt. eigenvalues --    2.26219   2.26708   2.27184   2.27775   2.27926
 Alpha virt. eigenvalues --    2.27999   2.28659   2.29079   2.29248   2.29592
 Alpha virt. eigenvalues --    2.29841   2.30214   2.30479   2.31281   2.31528
 Alpha virt. eigenvalues --    2.32086   2.32685   2.32768   2.33261   2.33601
 Alpha virt. eigenvalues --    2.33887   2.34176   2.34546   2.35102   2.35326
 Alpha virt. eigenvalues --    2.35362   2.35817   2.36509   2.36901   2.37084
 Alpha virt. eigenvalues --    2.37303   2.37358   2.37602   2.37923   2.38103
 Alpha virt. eigenvalues --    2.38861   2.39164   2.39466   2.40388   2.40634
 Alpha virt. eigenvalues --    2.40816   2.41190   2.41221   2.41578   2.42140
 Alpha virt. eigenvalues --    2.42369   2.43029   2.43481   2.43708   2.44284
 Alpha virt. eigenvalues --    2.44404   2.44650   2.45264   2.45606   2.45780
 Alpha virt. eigenvalues --    2.46072   2.46694   2.46950   2.47276   2.47566
 Alpha virt. eigenvalues --    2.47833   2.48067   2.48557   2.49089   2.49476
 Alpha virt. eigenvalues --    2.49676   2.50059   2.50364   2.50537   2.51017
 Alpha virt. eigenvalues --    2.51463   2.52087   2.52482   2.52505   2.52779
 Alpha virt. eigenvalues --    2.53172   2.53640   2.54072   2.54372   2.54588
 Alpha virt. eigenvalues --    2.54732   2.55024   2.55548   2.55784   2.55996
 Alpha virt. eigenvalues --    2.56228   2.56466   2.56995   2.57157   2.57429
 Alpha virt. eigenvalues --    2.57972   2.58215   2.58450   2.58700   2.58947
 Alpha virt. eigenvalues --    2.59012   2.59130   2.59572   2.59742   2.60073
 Alpha virt. eigenvalues --    2.60384   2.60507   2.60787   2.61322   2.61545
 Alpha virt. eigenvalues --    2.62113   2.62334   2.62625   2.63026   2.63226
 Alpha virt. eigenvalues --    2.63407   2.63855   2.64178   2.64371   2.64560
 Alpha virt. eigenvalues --    2.65116   2.65419   2.65579   2.65979   2.66624
 Alpha virt. eigenvalues --    2.66738   2.67185   2.67247   2.67498   2.67711
 Alpha virt. eigenvalues --    2.67974   2.68495   2.68801   2.69153   2.69530
 Alpha virt. eigenvalues --    2.69742   2.70001   2.70308   2.70768   2.70929
 Alpha virt. eigenvalues --    2.71117   2.71480   2.71587   2.71751   2.71984
 Alpha virt. eigenvalues --    2.72453   2.72669   2.73121   2.73506   2.73640
 Alpha virt. eigenvalues --    2.73848   2.74253   2.74658   2.74775   2.75247
 Alpha virt. eigenvalues --    2.75558   2.76064   2.76188   2.76491   2.76931
 Alpha virt. eigenvalues --    2.77326   2.77863   2.78266   2.78586   2.78743
 Alpha virt. eigenvalues --    2.79068   2.79296   2.79681   2.80611   2.80642
 Alpha virt. eigenvalues --    2.80798   2.81056   2.81546   2.81640   2.82172
 Alpha virt. eigenvalues --    2.82746   2.83146   2.83582   2.83940   2.84227
 Alpha virt. eigenvalues --    2.84444   2.84676   2.85123   2.85489   2.85620
 Alpha virt. eigenvalues --    2.85887   2.86282   2.86413   2.86990   2.87358
 Alpha virt. eigenvalues --    2.87861   2.87956   2.88353   2.88581   2.89707
 Alpha virt. eigenvalues --    2.90139   2.90274   2.90475   2.90765   2.91110
 Alpha virt. eigenvalues --    2.91270   2.91431   2.92058   2.92229   2.92631
 Alpha virt. eigenvalues --    2.93432   2.93660   2.94007   2.94099   2.94524
 Alpha virt. eigenvalues --    2.95029   2.95073   2.95363   2.95564   2.95954
 Alpha virt. eigenvalues --    2.96150   2.96551   2.96743   2.96931   2.96950
 Alpha virt. eigenvalues --    2.97694   2.97890   2.98315   2.98412   2.98827
 Alpha virt. eigenvalues --    2.99100   2.99318   2.99471   2.99640   2.99888
 Alpha virt. eigenvalues --    3.00259   3.00515   3.01067   3.01392   3.01674
 Alpha virt. eigenvalues --    3.01849   3.01984   3.02518   3.02987   3.03009
 Alpha virt. eigenvalues --    3.03413   3.03783   3.03989   3.04288   3.04485
 Alpha virt. eigenvalues --    3.05029   3.05284   3.05440   3.05661   3.06085
 Alpha virt. eigenvalues --    3.06474   3.06595   3.06935   3.07101   3.07751
 Alpha virt. eigenvalues --    3.07832   3.07953   3.08168   3.08507   3.08719
 Alpha virt. eigenvalues --    3.08946   3.09441   3.09657   3.09732   3.09986
 Alpha virt. eigenvalues --    3.10457   3.10844   3.10919   3.11063   3.11277
 Alpha virt. eigenvalues --    3.11499   3.11729   3.11869   3.11998   3.12426
 Alpha virt. eigenvalues --    3.12693   3.12935   3.13094   3.13434   3.13651
 Alpha virt. eigenvalues --    3.13847   3.14365   3.14645   3.14945   3.15113
 Alpha virt. eigenvalues --    3.15272   3.16114   3.16239   3.16310   3.16518
 Alpha virt. eigenvalues --    3.16985   3.17091   3.17465   3.17859   3.17933
 Alpha virt. eigenvalues --    3.18032   3.18655   3.18750   3.18847   3.19286
 Alpha virt. eigenvalues --    3.19442   3.19989   3.20154   3.20254   3.20632
 Alpha virt. eigenvalues --    3.20806   3.20963   3.21210   3.21346   3.21694
 Alpha virt. eigenvalues --    3.21902   3.22095   3.22377   3.22871   3.23047
 Alpha virt. eigenvalues --    3.23388   3.23624   3.23995   3.24288   3.24376
 Alpha virt. eigenvalues --    3.24810   3.25028   3.25278   3.25595   3.25801
 Alpha virt. eigenvalues --    3.26120   3.26424   3.26458   3.26989   3.27090
 Alpha virt. eigenvalues --    3.27423   3.27652   3.27862   3.28068   3.28335
 Alpha virt. eigenvalues --    3.28685   3.28954   3.29069   3.29665   3.29851
 Alpha virt. eigenvalues --    3.30204   3.30274   3.30435   3.30774   3.31295
 Alpha virt. eigenvalues --    3.31452   3.31576   3.31871   3.32186   3.32426
 Alpha virt. eigenvalues --    3.32568   3.32961   3.33147   3.33298   3.33401
 Alpha virt. eigenvalues --    3.33795   3.34174   3.34243   3.34544   3.34903
 Alpha virt. eigenvalues --    3.34972   3.35250   3.35769   3.35954   3.36129
 Alpha virt. eigenvalues --    3.36309   3.36361   3.36807   3.37029   3.37489
 Alpha virt. eigenvalues --    3.37802   3.38176   3.38379   3.38676   3.38900
 Alpha virt. eigenvalues --    3.38973   3.39095   3.39785   3.39917   3.40126
 Alpha virt. eigenvalues --    3.40283   3.40568   3.40709   3.41063   3.41272
 Alpha virt. eigenvalues --    3.41413   3.41620   3.41796   3.42544   3.42881
 Alpha virt. eigenvalues --    3.43018   3.43387   3.43510   3.43783   3.44032
 Alpha virt. eigenvalues --    3.44107   3.44310   3.45023   3.45221   3.45416
 Alpha virt. eigenvalues --    3.45775   3.46352   3.46723   3.46894   3.47194
 Alpha virt. eigenvalues --    3.47502   3.48018   3.48346   3.48451   3.48554
 Alpha virt. eigenvalues --    3.48964   3.49117   3.49531   3.49854   3.50266
 Alpha virt. eigenvalues --    3.50358   3.50630   3.50756   3.51146   3.51401
 Alpha virt. eigenvalues --    3.51921   3.52336   3.52526   3.52722   3.52768
 Alpha virt. eigenvalues --    3.53453   3.53768   3.53929   3.54599   3.54726
 Alpha virt. eigenvalues --    3.54894   3.55413   3.55457   3.55896   3.56203
 Alpha virt. eigenvalues --    3.56585   3.56647   3.56870   3.57284   3.57602
 Alpha virt. eigenvalues --    3.58334   3.59043   3.59186   3.59368   3.59926
 Alpha virt. eigenvalues --    3.60027   3.60678   3.60990   3.61366   3.61877
 Alpha virt. eigenvalues --    3.62179   3.62494   3.62937   3.63261   3.63477
 Alpha virt. eigenvalues --    3.63946   3.64353   3.64429   3.64954   3.65234
 Alpha virt. eigenvalues --    3.65986   3.66138   3.66406   3.66689   3.66759
 Alpha virt. eigenvalues --    3.67371   3.67531   3.68090   3.68283   3.68603
 Alpha virt. eigenvalues --    3.68994   3.69113   3.70012   3.70097   3.70453
 Alpha virt. eigenvalues --    3.70594   3.71215   3.71722   3.71854   3.72276
 Alpha virt. eigenvalues --    3.72874   3.73019   3.73413   3.73579   3.74121
 Alpha virt. eigenvalues --    3.74354   3.74545   3.75425   3.76232   3.76419
 Alpha virt. eigenvalues --    3.77079   3.77493   3.77752   3.78301   3.78731
 Alpha virt. eigenvalues --    3.79024   3.79262   3.79679   3.79835   3.81472
 Alpha virt. eigenvalues --    3.81720   3.81819   3.82346   3.82493   3.83281
 Alpha virt. eigenvalues --    3.83945   3.84156   3.84955   3.85200   3.85465
 Alpha virt. eigenvalues --    3.85699   3.86728   3.86903   3.87451   3.87738
 Alpha virt. eigenvalues --    3.88025   3.88502   3.89101   3.89166   3.89572
 Alpha virt. eigenvalues --    3.89838   3.90838   3.91098   3.91363   3.91929
 Alpha virt. eigenvalues --    3.92558   3.92810   3.93439   3.94180   3.94678
 Alpha virt. eigenvalues --    3.95242   3.95702   3.95982   3.96305   3.96787
 Alpha virt. eigenvalues --    3.97064   3.97535   3.98035   3.98581   3.98753
 Alpha virt. eigenvalues --    3.99431   3.99707   4.00432   4.01185   4.01716
 Alpha virt. eigenvalues --    4.01971   4.02582   4.03221   4.03432   4.03674
 Alpha virt. eigenvalues --    4.04270   4.04703   4.05331   4.05736   4.05999
 Alpha virt. eigenvalues --    4.06742   4.06897   4.07328   4.07754   4.07840
 Alpha virt. eigenvalues --    4.08900   4.09350   4.09675   4.10322   4.10864
 Alpha virt. eigenvalues --    4.11477   4.12104   4.12618   4.12870   4.13140
 Alpha virt. eigenvalues --    4.14001   4.14347   4.14619   4.15072   4.15779
 Alpha virt. eigenvalues --    4.16253   4.16553   4.17221   4.17464   4.17830
 Alpha virt. eigenvalues --    4.18726   4.18924   4.18990   4.19366   4.20003
 Alpha virt. eigenvalues --    4.20691   4.21886   4.22107   4.22702   4.22774
 Alpha virt. eigenvalues --    4.23255   4.23904   4.24792   4.25595   4.25771
 Alpha virt. eigenvalues --    4.26446   4.26518   4.26977   4.27856   4.28792
 Alpha virt. eigenvalues --    4.28998   4.29061   4.29357   4.29855   4.30074
 Alpha virt. eigenvalues --    4.30533   4.30993   4.31650   4.32028   4.32592
 Alpha virt. eigenvalues --    4.33095   4.33559   4.34568   4.35064   4.35355
 Alpha virt. eigenvalues --    4.35568   4.35770   4.36531   4.37050   4.37365
 Alpha virt. eigenvalues --    4.37906   4.38269   4.38779   4.38844   4.39528
 Alpha virt. eigenvalues --    4.39878   4.40546   4.40726   4.40999   4.41394
 Alpha virt. eigenvalues --    4.42054   4.42694   4.43009   4.43219   4.43911
 Alpha virt. eigenvalues --    4.44845   4.45296   4.45758   4.46106   4.48021
 Alpha virt. eigenvalues --    4.48500   4.48616   4.49409   4.49878   4.50495
 Alpha virt. eigenvalues --    4.51009   4.51725   4.52316   4.53138   4.53714
 Alpha virt. eigenvalues --    4.54457   4.54488   4.54837   4.55943   4.56207
 Alpha virt. eigenvalues --    4.56967   4.57451   4.57974   4.58542   4.59070
 Alpha virt. eigenvalues --    4.59424   4.60383   4.61041   4.61518   4.62470
 Alpha virt. eigenvalues --    4.62970   4.63502   4.64135   4.64676   4.65266
 Alpha virt. eigenvalues --    4.66148   4.67094   4.67846   4.68037   4.69603
 Alpha virt. eigenvalues --    4.69954   4.70661   4.71382   4.71823   4.71889
 Alpha virt. eigenvalues --    4.72562   4.74445   4.74583   4.75847   4.76575
 Alpha virt. eigenvalues --    4.77553   4.78048   4.78112   4.79006   4.79629
 Alpha virt. eigenvalues --    4.80186   4.80900   4.82122   4.82806   4.83079
 Alpha virt. eigenvalues --    4.83572   4.84011   4.85761   4.86257   4.86441
 Alpha virt. eigenvalues --    4.87666   4.87960   4.88541   4.89249   4.89786
 Alpha virt. eigenvalues --    4.90366   4.91156   4.91486   4.92626   4.93716
 Alpha virt. eigenvalues --    4.93955   4.94265   4.94741   4.96284   4.96959
 Alpha virt. eigenvalues --    4.97793   4.98256   4.99293   4.99602   5.00275
 Alpha virt. eigenvalues --    5.00531   5.01560   5.02591   5.03441   5.03893
 Alpha virt. eigenvalues --    5.04153   5.05066   5.05590   5.06457   5.07239
 Alpha virt. eigenvalues --    5.09198   5.09695   5.11139   5.12479   5.13175
 Alpha virt. eigenvalues --    5.14695   5.17307   5.17671   5.18045   5.18573
 Alpha virt. eigenvalues --    5.19026   5.19477   5.19974   5.20792   5.21773
 Alpha virt. eigenvalues --    5.22222   5.22537   5.22873   5.23782   5.24437
 Alpha virt. eigenvalues --    5.24740   5.25649   5.26353   5.26839   5.27981
 Alpha virt. eigenvalues --    5.28966   5.29206   5.29798   5.32290   5.33418
 Alpha virt. eigenvalues --    5.34374   5.36062   5.37356   5.38653   5.39343
 Alpha virt. eigenvalues --    5.39848   5.41334   5.41695   5.42423   5.42710
 Alpha virt. eigenvalues --    5.44556   5.45168   5.45354   5.46181   5.47550
 Alpha virt. eigenvalues --    5.49841   5.50047   5.51239   5.54422   5.54752
 Alpha virt. eigenvalues --    5.55136   5.56747   5.56767   5.57629   5.58373
 Alpha virt. eigenvalues --    5.59070   5.60402   5.61691   5.63573   5.64687
 Alpha virt. eigenvalues --    5.64893   5.65672   5.67483   5.68455   5.69946
 Alpha virt. eigenvalues --    5.72662   5.73555   5.75188   5.76321   5.79134
 Alpha virt. eigenvalues --    5.79375   5.80854   5.83292   5.86829   5.89857
 Alpha virt. eigenvalues --    5.90784   5.94157   5.95452   5.98001   5.98863
 Alpha virt. eigenvalues --    5.99446   6.00603   6.02579   6.04678   6.05958
 Alpha virt. eigenvalues --    6.07464   6.08923   6.09030   6.10204   6.10817
 Alpha virt. eigenvalues --    6.11719   6.14545   6.15862   6.16721   6.21386
 Alpha virt. eigenvalues --    6.22762   6.29344   6.31710   6.33470   6.34180
 Alpha virt. eigenvalues --    6.37076   6.38822   6.42437   6.42968   6.43427
 Alpha virt. eigenvalues --    6.46706   6.46973   6.47116   6.49035   6.65301
 Alpha virt. eigenvalues --    6.66230   6.73087   6.74685   6.84477   6.86947
 Alpha virt. eigenvalues --    6.93143   6.93374   7.03220   7.05870   7.11329
 Alpha virt. eigenvalues --    7.11939   7.19853   7.20313   7.25198   7.27254
 Alpha virt. eigenvalues --    9.21713   9.50630   9.66982  20.21224  22.19119
 Alpha virt. eigenvalues --   22.21067  22.37408  22.38672  22.40169  22.50630
 Alpha virt. eigenvalues --   22.52583  22.53834  22.54854  22.56568  22.57610
 Alpha virt. eigenvalues --   22.58637  22.60495  22.64847  22.71675  22.75243
 Alpha virt. eigenvalues --   22.79619  22.89147  22.90696  22.94413  22.95357
 Alpha virt. eigenvalues --   22.99145  23.03137  23.05255  23.11648  23.23512
 Alpha virt. eigenvalues --   23.25283  23.28756  23.29793  23.32501  23.39203
 Alpha virt. eigenvalues --   23.42284  23.46607  23.52426  23.55036  23.59739
 Alpha virt. eigenvalues --   23.64152  23.64927  23.73844  23.78531  23.87254
 Alpha virt. eigenvalues --   32.44969  32.73168  33.00862  33.06473  33.10118
 Alpha virt. eigenvalues --   33.17288  43.94692  43.97003  43.98956  44.08168
  Beta  occ. eigenvalues -- -256.35378 -89.03813 -30.12436 -25.95299 -25.94957
  Beta  occ. eigenvalues --  -25.94669 -19.27574 -19.26197 -19.20150 -19.19697
  Beta  occ. eigenvalues --  -14.45745 -14.42127 -14.41905 -14.39858 -14.39566
  Beta  occ. eigenvalues --  -14.39193 -10.36909 -10.36686 -10.32778 -10.29747
  Beta  occ. eigenvalues --  -10.28902 -10.28514 -10.28010 -10.27897 -10.27889
  Beta  occ. eigenvalues --  -10.27870 -10.27712 -10.27645 -10.27210 -10.27198
  Beta  occ. eigenvalues --  -10.26562 -10.26534 -10.26235 -10.25980 -10.25532
  Beta  occ. eigenvalues --  -10.25401 -10.25276 -10.25046 -10.25008 -10.24916
  Beta  occ. eigenvalues --  -10.24908 -10.24131 -10.23988 -10.23837 -10.23745
  Beta  occ. eigenvalues --  -10.23709 -10.23689 -10.23467 -10.23458 -10.23318
  Beta  occ. eigenvalues --  -10.23235 -10.22960 -10.22927 -10.22345 -10.22267
  Beta  occ. eigenvalues --  -10.22185 -10.21417  -8.01658  -5.95329  -5.95021
  Beta  occ. eigenvalues --   -5.94494  -3.46979  -2.23146  -2.22418  -2.21855
  Beta  occ. eigenvalues --   -1.18247  -1.17290  -1.06925  -1.05226  -1.04382
  Beta  occ. eigenvalues --   -1.02347  -1.01061  -1.00449  -0.99639  -0.92147
  Beta  occ. eigenvalues --   -0.87056  -0.86050  -0.85655  -0.85267  -0.84731
  Beta  occ. eigenvalues --   -0.84455  -0.83745  -0.83559  -0.81565  -0.81094
  Beta  occ. eigenvalues --   -0.80323  -0.79335  -0.78796  -0.77767  -0.77427
  Beta  occ. eigenvalues --   -0.75819  -0.74532  -0.73913  -0.73043  -0.72959
  Beta  occ. eigenvalues --   -0.71558  -0.70755  -0.70581  -0.68950  -0.68521
  Beta  occ. eigenvalues --   -0.68350  -0.67758  -0.66400  -0.65610  -0.65144
  Beta  occ. eigenvalues --   -0.63625  -0.63230  -0.62068  -0.61569  -0.61556
  Beta  occ. eigenvalues --   -0.58598  -0.57906  -0.57502  -0.57193  -0.56379
  Beta  occ. eigenvalues --   -0.55756  -0.55205  -0.54419  -0.54138  -0.53797
  Beta  occ. eigenvalues --   -0.52269  -0.52167  -0.51456  -0.51289  -0.50432
  Beta  occ. eigenvalues --   -0.50117  -0.49604  -0.49488  -0.49075  -0.48874
  Beta  occ. eigenvalues --   -0.48381  -0.48226  -0.47964  -0.47802  -0.47360
  Beta  occ. eigenvalues --   -0.47051  -0.46748  -0.46687  -0.46546  -0.46432
  Beta  occ. eigenvalues --   -0.46328  -0.45940  -0.45558  -0.45153  -0.45041
  Beta  occ. eigenvalues --   -0.44655  -0.44540  -0.44166  -0.44020  -0.43903
  Beta  occ. eigenvalues --   -0.43745  -0.43621  -0.43504  -0.43129  -0.42761
  Beta  occ. eigenvalues --   -0.42591  -0.42496  -0.42267  -0.42038  -0.41917
  Beta  occ. eigenvalues --   -0.41709  -0.41242  -0.40805  -0.40709  -0.40087
  Beta  occ. eigenvalues --   -0.39934  -0.39662  -0.39597  -0.39177  -0.38991
  Beta  occ. eigenvalues --   -0.38441  -0.38289  -0.37735  -0.37226  -0.36914
  Beta  occ. eigenvalues --   -0.36572  -0.36520  -0.36249  -0.35889  -0.35249
  Beta  occ. eigenvalues --   -0.34913  -0.34482  -0.34183  -0.33869  -0.33656
  Beta  occ. eigenvalues --   -0.32479  -0.32080  -0.32015  -0.31251  -0.30185
  Beta  occ. eigenvalues --   -0.29463  -0.29413  -0.29082  -0.27584  -0.26542
  Beta  occ. eigenvalues --   -0.25623  -0.24604  -0.24308  -0.23588  -0.23008
  Beta  occ. eigenvalues --   -0.22172  -0.21375  -0.20299
  Beta virt. eigenvalues --   -0.15429  -0.10904  -0.09629  -0.08421  -0.07698
  Beta virt. eigenvalues --   -0.02867  -0.01761  -0.01583  -0.01329   0.00266
  Beta virt. eigenvalues --    0.00768   0.01337   0.02004   0.02415   0.02866
  Beta virt. eigenvalues --    0.03148   0.03618   0.03972   0.04095   0.04447
  Beta virt. eigenvalues --    0.04904   0.05103   0.05392   0.05587   0.05759
  Beta virt. eigenvalues --    0.06131   0.06629   0.06753   0.06955   0.07079
  Beta virt. eigenvalues --    0.07368   0.07644   0.07759   0.07955   0.08320
  Beta virt. eigenvalues --    0.08761   0.08881   0.09061   0.09416   0.09733
  Beta virt. eigenvalues --    0.09886   0.10118   0.10484   0.10548   0.10753
  Beta virt. eigenvalues --    0.11121   0.11488   0.11597   0.11873   0.12147
  Beta virt. eigenvalues --    0.12196   0.12351   0.12412   0.12606   0.12655
  Beta virt. eigenvalues --    0.12833   0.13194   0.13356   0.13524   0.13664
  Beta virt. eigenvalues --    0.13736   0.13870   0.14116   0.14414   0.14606
  Beta virt. eigenvalues --    0.14901   0.15033   0.15142   0.15467   0.15603
  Beta virt. eigenvalues --    0.15627   0.15738   0.16147   0.16392   0.16739
  Beta virt. eigenvalues --    0.16970   0.17304   0.17385   0.17660   0.17777
  Beta virt. eigenvalues --    0.17968   0.18123   0.18447   0.18649   0.18718
  Beta virt. eigenvalues --    0.18781   0.19231   0.19394   0.19587   0.19715
  Beta virt. eigenvalues --    0.19884   0.20153   0.20629   0.20676   0.20950
  Beta virt. eigenvalues --    0.21040   0.21494   0.21590   0.21713   0.21890
  Beta virt. eigenvalues --    0.22113   0.22280   0.22453   0.22993   0.23019
  Beta virt. eigenvalues --    0.23279   0.23462   0.23742   0.23949   0.24034
  Beta virt. eigenvalues --    0.24233   0.24303   0.24502   0.24867   0.24950
  Beta virt. eigenvalues --    0.25037   0.25675   0.25953   0.26035   0.26132
  Beta virt. eigenvalues --    0.26548   0.26658   0.26750   0.27229   0.27405
  Beta virt. eigenvalues --    0.27478   0.27701   0.27883   0.28335   0.28499
  Beta virt. eigenvalues --    0.28553   0.28746   0.28851   0.28986   0.29332
  Beta virt. eigenvalues --    0.29545   0.29763   0.29911   0.30120   0.30467
  Beta virt. eigenvalues --    0.30710   0.30939   0.31104   0.31258   0.31416
  Beta virt. eigenvalues --    0.31561   0.31668   0.31963   0.32265   0.32522
  Beta virt. eigenvalues --    0.32655   0.32899   0.33276   0.33572   0.33694
  Beta virt. eigenvalues --    0.33824   0.34504   0.34582   0.34855   0.35013
  Beta virt. eigenvalues --    0.35213   0.35302   0.35548   0.35719   0.35951
  Beta virt. eigenvalues --    0.36162   0.36425   0.36682   0.36788   0.36858
  Beta virt. eigenvalues --    0.37065   0.37226   0.37569   0.37788   0.38043
  Beta virt. eigenvalues --    0.38064   0.38338   0.38397   0.38678   0.38882
  Beta virt. eigenvalues --    0.39189   0.39264   0.39406   0.39622   0.39832
  Beta virt. eigenvalues --    0.40136   0.40213   0.40390   0.40589   0.40841
  Beta virt. eigenvalues --    0.41169   0.41240   0.41401   0.41452   0.41783
  Beta virt. eigenvalues --    0.41848   0.41946   0.42250   0.42428   0.42607
  Beta virt. eigenvalues --    0.42762   0.42850   0.43203   0.43334   0.43382
  Beta virt. eigenvalues --    0.43606   0.43744   0.43935   0.44040   0.44199
  Beta virt. eigenvalues --    0.44539   0.44627   0.44906   0.45062   0.45243
  Beta virt. eigenvalues --    0.45381   0.45592   0.45636   0.45804   0.45868
  Beta virt. eigenvalues --    0.46196   0.46557   0.46731   0.46784   0.46868
  Beta virt. eigenvalues --    0.47017   0.47222   0.47411   0.47491   0.47875
  Beta virt. eigenvalues --    0.48092   0.48210   0.48274   0.48495   0.48580
  Beta virt. eigenvalues --    0.48709   0.48807   0.49250   0.49392   0.49423
  Beta virt. eigenvalues --    0.49485   0.49862   0.49974   0.50244   0.50339
  Beta virt. eigenvalues --    0.50400   0.50714   0.50880   0.50996   0.51051
  Beta virt. eigenvalues --    0.51324   0.51538   0.51868   0.52023   0.52266
  Beta virt. eigenvalues --    0.52510   0.52684   0.52838   0.53018   0.53281
  Beta virt. eigenvalues --    0.53415   0.53589   0.53666   0.53850   0.54256
  Beta virt. eigenvalues --    0.54358   0.54641   0.54867   0.55278   0.55377
  Beta virt. eigenvalues --    0.55666   0.55890   0.56198   0.56295   0.56752
  Beta virt. eigenvalues --    0.57032   0.57051   0.57500   0.57594   0.57787
  Beta virt. eigenvalues --    0.57976   0.58228   0.58415   0.58615   0.58725
  Beta virt. eigenvalues --    0.59013   0.59103   0.59397   0.59501   0.59886
  Beta virt. eigenvalues --    0.60342   0.60439   0.60544   0.60814   0.61036
  Beta virt. eigenvalues --    0.61192   0.61350   0.61721   0.61918   0.62132
  Beta virt. eigenvalues --    0.62292   0.62575   0.62946   0.63245   0.63326
  Beta virt. eigenvalues --    0.63802   0.64003   0.64336   0.64658   0.64973
  Beta virt. eigenvalues --    0.65069   0.65333   0.65515   0.66031   0.66163
  Beta virt. eigenvalues --    0.66431   0.66558   0.67176   0.67244   0.67639
  Beta virt. eigenvalues --    0.67941   0.67961   0.68098   0.68507   0.68677
  Beta virt. eigenvalues --    0.68991   0.69182   0.69403   0.69716   0.69990
  Beta virt. eigenvalues --    0.70105   0.70752   0.71010   0.71315   0.71343
  Beta virt. eigenvalues --    0.71541   0.71918   0.72480   0.72588   0.72812
  Beta virt. eigenvalues --    0.72883   0.73268   0.73705   0.73995   0.74083
  Beta virt. eigenvalues --    0.74226   0.74748   0.74893   0.75298   0.75736
  Beta virt. eigenvalues --    0.76053   0.76156   0.76538   0.76951   0.77039
  Beta virt. eigenvalues --    0.77206   0.77311   0.77876   0.78130   0.78394
  Beta virt. eigenvalues --    0.78588   0.78645   0.78936   0.79590   0.79887
  Beta virt. eigenvalues --    0.79993   0.80538   0.80849   0.80980   0.81247
  Beta virt. eigenvalues --    0.81459   0.81737   0.82058   0.82309   0.82729
  Beta virt. eigenvalues --    0.82918   0.83436   0.83597   0.83643   0.84133
[...]
 
              Baa    -0.0001     0.004     0.002     0.001 -0.0186  0.0333  0.9993
    35 O(17)  Bbb    -0.0001     0.004     0.001     0.001  0.2232  0.9744 -0.0283
              Bcc     0.0001    -0.008    -0.003    -0.003  0.9746 -0.2225  0.0256
 
              Baa    -0.0001     0.004     0.001     0.001 -0.4231 -0.3020  0.8543
    36 O(17)  Bbb    -0.0000     0.003     0.001     0.001  0.2743  0.8559  0.4384
              Bcc     0.0001    -0.007    -0.002    -0.002  0.8636 -0.4198  0.2793
 
              Baa    -0.0044    -0.585    -0.209    -0.195 -0.1905  0.8473  0.4957
    37 C(13)  Bbb    -0.0022    -0.302    -0.108    -0.101  0.6309  0.4925 -0.5994
              Bcc     0.0066     0.887     0.316     0.296  0.7521 -0.1986  0.6284
 
              Baa    -0.0143    -1.915    -0.683    -0.639  0.3635  0.8773 -0.3134
    38 C(13)  Bbb    -0.0027    -0.360    -0.129    -0.120  0.9265 -0.3755  0.0236
              Bcc     0.0170     2.275     0.812     0.759  0.0970  0.2989  0.9493
 
              Baa    -0.0470    -6.304    -2.250    -2.103  0.5617  0.0777  0.8237
    39 C(13)  Bbb    -0.0378    -5.068    -1.808    -1.691  0.2858  0.9161 -0.2813
              Bcc     0.0848    11.373     4.058     3.794  0.7764 -0.3934 -0.4924
 
              Baa    -0.0146    -1.964    -0.701    -0.655  0.9703  0.2406 -0.0270
    40 C(13)  Bbb    -0.0035    -0.473    -0.169    -0.158 -0.2270  0.9428  0.2440
              Bcc     0.0182     2.437     0.870     0.813  0.0842 -0.2306  0.9694
 
              Baa    -0.0151    -2.029    -0.724    -0.677 -0.1054  0.5883  0.8018
    41 C(13)  Bbb    -0.0103    -1.386    -0.495    -0.462  0.3471  0.7773 -0.5247
              Bcc     0.0255     3.416     1.219     1.139  0.9319 -0.2230  0.2861
 
              Baa    -0.0497    -6.671    -2.380    -2.225  0.8022  0.0733  0.5926
    42 C(13)  Bbb    -0.0189    -2.536    -0.905    -0.846 -0.1047  0.9943  0.0188
              Bcc     0.0686     9.207     3.285     3.071 -0.5878 -0.0771  0.8053
 
              Baa    -0.5608   -75.254   -26.852   -25.102 -0.3035  0.9279  0.2167
    43 C(13)  Bbb    -0.5587   -74.979   -26.754   -25.010 -0.3756 -0.3255  0.8677
              Bcc     1.1195   150.233    53.607    50.112  0.8757  0.1820  0.4473
 
              Baa    -0.0104    -1.402    -0.500    -0.468  0.9929  0.0023  0.1192
    44 C(13)  Bbb    -0.0060    -0.806    -0.288    -0.269  0.0039  0.9986 -0.0521
              Bcc     0.0165     2.208     0.788     0.737 -0.1192  0.0522  0.9915
 
              Baa    -0.0075    -1.008    -0.360    -0.336  0.9787  0.1955 -0.0626
    45 C(13)  Bbb    -0.0058    -0.774    -0.276    -0.258 -0.1962  0.9805 -0.0061
              Bcc     0.0133     1.783     0.636     0.595  0.0602  0.0182  0.9980
 
              Baa    -0.0016    -0.212    -0.076    -0.071 -0.1009 -0.2094  0.9726
    46 C(13)  Bbb     0.0003     0.037     0.013     0.012  0.9674  0.2077  0.1451
              Bcc     0.0013     0.176     0.063     0.059 -0.2324  0.9555  0.1816
 
              Baa    -0.0186    -2.492    -0.889    -0.831  0.4248  0.9038  0.0512
    47 C(13)  Bbb    -0.0171    -2.289    -0.817    -0.764  0.9009 -0.4277  0.0740
              Bcc     0.0356     4.781     1.706     1.595 -0.0887 -0.0147  0.9959
 
              Baa    -0.0007    -0.093    -0.033    -0.031  0.9359 -0.1770 -0.3046
    48 C(13)  Bbb    -0.0001    -0.015    -0.005    -0.005  0.2805 -0.1487  0.9483
              Bcc     0.0008     0.108     0.039     0.036  0.2131  0.9729  0.0896
 
              Baa    -0.0031    -0.422    -0.150    -0.141  0.8961 -0.0823  0.4361
    49 C(13)  Bbb    -0.0024    -0.327    -0.117    -0.109  0.1741  0.9691 -0.1749
              Bcc     0.0056     0.748     0.267     0.250 -0.4082  0.2327  0.8827
 
              Baa    -0.0016    -0.217    -0.078    -0.073 -0.0757 -0.4749  0.8768
    50 C(13)  Bbb     0.0004     0.049     0.018     0.016  0.9791 -0.2019 -0.0248
              Bcc     0.0013     0.168     0.060     0.056  0.1888  0.8566  0.4803
 
              Baa    -0.0168    -2.248    -0.802    -0.750  0.2852  0.9572  0.0496
    51 C(13)  Bbb    -0.0158    -2.115    -0.755    -0.706  0.9584 -0.2845 -0.0214
              Bcc     0.0325     4.363     1.557     1.455  0.0064 -0.0537  0.9985
 
              Baa    -0.0084    -1.126    -0.402    -0.375 -0.0356 -0.0381  0.9986
    52 C(13)  Bbb     0.0039     0.529     0.189     0.176  0.1008  0.9940  0.0415
              Bcc     0.0044     0.597     0.213     0.199  0.9943 -0.1021  0.0316
 
              Baa    -0.0081    -1.090    -0.389    -0.364  0.5371  0.8316  0.1414
    53 C(13)  Bbb    -0.0076    -1.023    -0.365    -0.341  0.8197 -0.5541  0.1449
              Bcc     0.0157     2.113     0.754     0.705 -0.1988 -0.0380  0.9793
 
              Baa    -0.0034    -0.458    -0.164    -0.153  0.9129 -0.4082  0.0045
    54 C(13)  Bbb    -0.0014    -0.189    -0.067    -0.063  0.4042  0.9054  0.1296
              Bcc     0.0048     0.647     0.231     0.216 -0.0570 -0.1165  0.9915
 
              Baa    -0.0002    -0.031    -0.011    -0.010  0.2895  0.1732  0.9414
    55 C(13)  Bbb    -0.0001    -0.007    -0.003    -0.002  0.8334  0.4381 -0.3369
              Bcc     0.0003     0.038     0.014     0.013 -0.4708  0.8821 -0.0175
 
              Baa    -0.0003    -0.045    -0.016    -0.015  0.6416  0.7355  0.2175
    56 C(13)  Bbb     0.0001     0.009     0.003     0.003 -0.3265  0.0053  0.9452
              Bcc     0.0003     0.036     0.013     0.012  0.6941 -0.6775  0.2436
 
              Baa    -0.0005    -0.070    -0.025    -0.023  0.5063  0.6294  0.5895
    57 C(13)  Bbb    -0.0004    -0.057    -0.020    -0.019 -0.1629  0.7411 -0.6513
              Bcc     0.0010     0.128     0.046     0.043  0.8468 -0.2337 -0.4778
 
              Baa    -0.0002    -0.022    -0.008    -0.007 -0.2753 -0.1765  0.9450
    58 C(13)  Bbb     0.0000     0.006     0.002     0.002 -0.6882  0.7226 -0.0655
              Bcc     0.0001     0.016     0.006     0.005  0.6713  0.6684  0.3205
 
              Baa    -0.0003     0.024     0.009     0.008 -0.2638 -0.5721  0.7766
    59 O(17)  Bbb    -0.0003     0.020     0.007     0.007  0.9275  0.0706  0.3671
              Bcc     0.0006    -0.044    -0.016    -0.015 -0.2649  0.8171  0.5120
 
              Baa    -0.0002     0.012     0.004     0.004 -0.4385 -0.1229  0.8903
    60 O(17)  Bbb     0.0000    -0.001    -0.000    -0.000 -0.1263  0.9892  0.0743
              Bcc     0.0002    -0.011    -0.004    -0.004  0.8898  0.0799  0.4493
 
              Baa    -0.0079    -0.303    -0.108    -0.101  0.7022  0.6866  0.1882
    61 N(14)  Bbb    -0.0067    -0.258    -0.092    -0.086 -0.6788  0.7254 -0.1139
              Bcc     0.0145     0.561     0.200     0.187 -0.2147 -0.0478  0.9755
 
              Baa    -0.0310    -1.197    -0.427    -0.399 -0.5908  0.4469  0.6717
    62 N(14)  Bbb    -0.0010    -0.039    -0.014    -0.013  0.5899  0.8073 -0.0183
              Bcc     0.0321     1.237     0.441     0.412  0.5504 -0.3855  0.7406
 
              Baa    -0.0347    -1.338    -0.477    -0.446 -0.1047 -0.0310  0.9940
    63 N(14)  Bbb     0.0158     0.608     0.217     0.203  0.8391  0.5338  0.1050
              Bcc     0.0189     0.730     0.261     0.244 -0.5339  0.8450 -0.0299
 
              Baa    -0.0103    -0.396    -0.141    -0.132 -0.0989 -0.0166  0.9950
    64 N(14)  Bbb     0.0042     0.164     0.058     0.055 -0.5007  0.8649 -0.0353
              Bcc     0.0060     0.232     0.083     0.077  0.8599  0.5017  0.0938
 
              Baa    -0.1711    -2.962    -1.057    -0.988 -0.1787  0.1127  0.9774
    65 Fe(57) Bbb    -0.0665    -1.151    -0.411    -0.384 -0.6175  0.7605 -0.2006
              Bcc     0.2376     4.113     1.468     1.372  0.7660  0.6394  0.0663
 
              Baa    -0.0009    -0.491    -0.175    -0.164 -0.1121  0.0971  0.9889
    66 H(1)   Bbb    -0.0000    -0.020    -0.007    -0.007 -0.3601  0.9236 -0.1315
              Bcc     0.0010     0.510     0.182     0.170  0.9262  0.3708  0.0685
 
              Baa    -0.0032    -1.721    -0.614    -0.574  0.0248  0.0458  0.9986
    67 H(1)   Bbb    -0.0028    -1.502    -0.536    -0.501  0.9994 -0.0261 -0.0236
              Bcc     0.0060     3.223     1.150     1.075  0.0249  0.9986 -0.0464
 
              Baa    -0.0010    -0.534    -0.191    -0.178  0.2036  0.9790 -0.0026
    68 H(1)   Bbb    -0.0005    -0.259    -0.093    -0.087 -0.0490  0.0128  0.9987
              Bcc     0.0015     0.793     0.283     0.265  0.9778 -0.2032  0.0506
 
              Baa    -0.0007    -0.351    -0.125    -0.117  0.5473  0.8351  0.0558
    69 H(1)   Bbb    -0.0001    -0.066    -0.024    -0.022 -0.1672  0.0438  0.9849
              Bcc     0.0008     0.417     0.149     0.139  0.8201 -0.5484  0.1636
 
              Baa    -0.0003    -0.135    -0.048    -0.045  0.1097  0.6229  0.7746
    70 H(1)   Bbb    -0.0002    -0.119    -0.042    -0.040  0.0040  0.7790 -0.6270
              Bcc     0.0005     0.254     0.091     0.085  0.9940 -0.0719 -0.0830
 
              Baa    -0.0004    -0.205    -0.073    -0.068 -0.1492 -0.1936  0.9697
    71 H(1)   Bbb    -0.0003    -0.176    -0.063    -0.059 -0.0484  0.9809  0.1884
              Bcc     0.0007     0.381     0.136     0.127  0.9876  0.0188  0.1558
 
              Baa    -0.0002    -0.127    -0.045    -0.042 -0.2426 -0.5957  0.7657
    72 H(1)   Bbb    -0.0002    -0.112    -0.040    -0.037 -0.0702  0.7980  0.5986
              Bcc     0.0004     0.239     0.085     0.080  0.9676 -0.0914  0.2354
 
              Baa    -0.0002    -0.090    -0.032    -0.030 -0.0041  0.1877  0.9822
    73 H(1)   Bbb    -0.0000    -0.017    -0.006    -0.006  0.0442  0.9813 -0.1873
              Bcc     0.0002     0.107     0.038     0.036  0.9990 -0.0427  0.0123
 
              Baa    -0.0001    -0.073    -0.026    -0.025 -0.2851 -0.2146  0.9342
    74 H(1)   Bbb    -0.0000    -0.019    -0.007    -0.006  0.1477  0.9531  0.2641
              Bcc     0.0002     0.093     0.033     0.031  0.9470 -0.2132  0.2401
 
              Baa    -0.0001    -0.071    -0.025    -0.024  0.2090  0.9546 -0.2122
    75 H(1)   Bbb    -0.0001    -0.067    -0.024    -0.022 -0.0106  0.2192  0.9756
              Bcc     0.0003     0.138     0.049     0.046  0.9779 -0.2016  0.0559
 
              Baa    -0.0001    -0.059    -0.021    -0.020  0.0414 -0.0430  0.9982
    76 H(1)   Bbb    -0.0001    -0.049    -0.017    -0.016  0.3275  0.9445  0.0271
              Bcc     0.0002     0.108     0.039     0.036  0.9440 -0.3257 -0.0532
 
              Baa    -0.0032    -1.702    -0.607    -0.568  0.0489  0.8516  0.5219
    77 H(1)   Bbb    -0.0022    -1.154    -0.412    -0.385  0.2970 -0.5113  0.8065
              Bcc     0.0054     2.856     1.019     0.953  0.9536  0.1155 -0.2780
 
              Baa    -0.0141    -7.505    -2.678    -2.503  0.0012  0.6359  0.7718
    78 H(1)   Bbb    -0.0082    -4.373    -1.561    -1.459 -0.3142  0.7329 -0.6034
              Bcc     0.0223    11.878     4.238     3.962  0.9494  0.2418 -0.2007
 
              Baa    -0.0042    -2.236    -0.798    -0.746 -0.0240  0.7900 -0.6126
    79 H(1)   Bbb    -0.0027    -1.430    -0.510    -0.477 -0.4217  0.5475  0.7227
              Bcc     0.0069     3.666     1.308     1.223  0.9064  0.2757  0.3200
 
              Baa    -0.0008    -0.416    -0.148    -0.139 -0.3798  0.0480  0.9238
    80 H(1)   Bbb    -0.0005    -0.243    -0.087    -0.081  0.9121 -0.1475  0.3826
              Bcc     0.0012     0.659     0.235     0.220  0.1546  0.9879  0.0123
 
              Baa    -0.0005    -0.244    -0.087    -0.081  0.1208  0.1072  0.9869
    81 H(1)   Bbb    -0.0002    -0.131    -0.047    -0.044  0.9548 -0.2847 -0.0860
              Bcc     0.0007     0.376     0.134     0.125  0.2717  0.9526 -0.1368
 
              Baa    -0.0008    -0.445    -0.159    -0.149  0.6204  0.0982  0.7781
    82 H(1)   Bbb    -0.0005    -0.251    -0.090    -0.084  0.7784 -0.1987 -0.5955
              Bcc     0.0013     0.697     0.249     0.232  0.0961  0.9751 -0.1997
 
              Baa    -0.0001    -0.067    -0.024    -0.022 -0.2107 -0.2399  0.9477
    83 H(1)   Bbb    -0.0000    -0.023    -0.008    -0.008  0.8427  0.4468  0.3005
              Bcc     0.0002     0.090     0.032     0.030 -0.4955  0.8618  0.1081
 
              Baa    -0.0001    -0.061    -0.022    -0.020 -0.0463  0.0645  0.9968
    84 H(1)   Bbb    -0.0000    -0.022    -0.008    -0.007  0.9762  0.2144  0.0314
              Bcc     0.0002     0.083     0.030     0.028 -0.2117  0.9746 -0.0729
 
              Baa    -0.0001    -0.064    -0.023    -0.021  0.3060  0.1964  0.9315
    85 H(1)   Bbb    -0.0001    -0.046    -0.017    -0.015  0.8883  0.2930 -0.3536
              Bcc     0.0002     0.110     0.039     0.037 -0.3424  0.9357 -0.0848
 
              Baa    -0.0002    -0.082    -0.029    -0.027 -0.5990 -0.3108  0.7380
    86 H(1)   Bbb    -0.0001    -0.066    -0.024    -0.022  0.4355  0.6469  0.6260
              Bcc     0.0003     0.148     0.053     0.049 -0.6720  0.6963 -0.2522
 
              Baa    -0.0002    -0.112    -0.040    -0.037 -0.3567  0.0870  0.9302
    87 H(1)   Bbb    -0.0001    -0.040    -0.014    -0.013  0.3126  0.9494  0.0311
              Bcc     0.0003     0.152     0.054     0.051  0.8804 -0.3019  0.3658
 
              Baa    -0.0002    -0.110    -0.039    -0.037  0.4949  0.7556  0.4291
    88 H(1)   Bbb    -0.0000    -0.014    -0.005    -0.005  0.3269 -0.6195  0.7137
              Bcc     0.0002     0.125     0.044     0.042  0.8051 -0.2129 -0.5536
 
              Baa    -0.0001    -0.068    -0.024    -0.023  0.1564 -0.1930  0.9687
    89 H(1)   Bbb    -0.0001    -0.049    -0.017    -0.016  0.7388  0.6737  0.0149
              Bcc     0.0002     0.117     0.042     0.039 -0.6555  0.7133  0.2479
 
              Baa    -0.0001    -0.032    -0.011    -0.011 -0.3027 -0.2719  0.9135
    90 H(1)   Bbb    -0.0001    -0.030    -0.011    -0.010  0.4792  0.7851  0.3925
              Bcc     0.0001     0.062     0.022     0.021  0.8238 -0.5565  0.1074
 
              Baa    -0.0001    -0.031    -0.011    -0.010  0.0566  0.1000  0.9934
    91 H(1)   Bbb    -0.0001    -0.027    -0.010    -0.009  0.2556  0.9604 -0.1112
              Bcc     0.0001     0.058     0.021     0.019  0.9651 -0.2602 -0.0288
 
              Baa    -0.0726   -38.748   -13.826   -12.925 -0.4167  0.7908  0.4483
    92 H(1)   Bbb     0.0004     0.190     0.068     0.063  0.8892  0.2522  0.3817
              Bcc     0.0723    38.558    13.758    12.862 -0.1888 -0.5577  0.8083
 
              Baa    -0.0002    -0.126    -0.045    -0.042 -0.4486  0.2568  0.8560
    93 H(1)   Bbb    -0.0002    -0.091    -0.032    -0.030  0.7626 -0.3894  0.5165
              Bcc     0.0004     0.217     0.077     0.072  0.4660  0.8846 -0.0211
 
              Baa    -0.0004    -0.227    -0.081    -0.076  0.2135  0.7403 -0.6374
    94 H(1)   Bbb    -0.0002    -0.104    -0.037    -0.035  0.5690  0.4362  0.6971
              Bcc     0.0006     0.331     0.118     0.110  0.7941 -0.5115 -0.3281
 
              Baa    -0.0002    -0.102    -0.037    -0.034  0.7856 -0.0220 -0.6183
    95 H(1)   Bbb    -0.0001    -0.061    -0.022    -0.020  0.4641  0.6817  0.5655
              Bcc     0.0003     0.163     0.058     0.054 -0.4091  0.7313 -0.5458
 
              Baa    -0.0001    -0.072    -0.026    -0.024 -0.5424  0.0407  0.8392
    96 H(1)   Bbb    -0.0000    -0.023    -0.008    -0.008  0.7863 -0.3272  0.5241
              Bcc     0.0002     0.095     0.034     0.032  0.2959  0.9441  0.1454
 
              Baa    -0.0005    -0.260    -0.093    -0.087  0.8787  0.4078  0.2484
    97 H(1)   Bbb    -0.0002    -0.084    -0.030    -0.028 -0.3477  0.1901  0.9181
              Bcc     0.0006     0.344     0.123     0.115 -0.3272  0.8931 -0.3088
 
              Baa    -0.0728   -38.848   -13.862   -12.958  0.0551  0.8984 -0.4358
    98 H(1)   Bbb     0.0020     1.070     0.382     0.357  0.8992  0.1451  0.4128
              Bcc     0.0708    37.778    13.480    12.601 -0.4340  0.4146  0.7998
 
              Baa    -0.0121    -6.440    -2.298    -2.148  0.8265 -0.0563 -0.5601
    99 H(1)   Bbb    -0.0061    -3.253    -1.161    -1.085  0.5134 -0.3326  0.7910
              Bcc     0.0182     9.693     3.459     3.233  0.2309  0.9414  0.2460
 

 ---------------------------------------------------------------------------------

 1\1\GINC-NODE575\SP\UPBE1PBE\def2TZVP\C41H46Fe1N6O4S1(1+,2)\ZHARTOVSKA
 \17-Jan-2023\0\\# PBE1PBE/def2TZVP empiricaldispersion=GD3BJ int=(grid
 =ultrafine) geom=check guess=read scrf=(smd,solvent=Chloroform)\\1qpu_
 III_D_solv\\1,2\C,0,2.282,-5.169,8.634\C,0,3.509,-5.724,7.905\S,0,3.30
 1,-5.824,6.104\C,0,4.897,-5.355,5.406\H,0,2.46731386,-5.15936603,9.687
 78649\H,0,1.43388655,-5.787553,8.42664582\H,0,4.324,-5.028,8.095\H,0,3
 .791,-6.69,8.319\H,0,5.164,-4.376,5.804\H,0,5.661,-6.086,5.662\H,0,4.7
 98,-5.274,4.324\C,0,0.966,-12.429,2.492\C,0,0.992,-11.18,3.345\N,0,-0.
 055,-10.84,4.164\C,0,1.929,-10.176,3.425\C,0,0.226,-9.654,4.709\N,0,1.
 436,-9.215,4.325\H,0,0.21168143,-12.33130538,1.73943156\H,0,0.7481295,
 -13.27674538,3.10743498\H,0,-0.949,-11.309,4.18\H,0,2.864,-10.127,2.88
 8\H,0,-0.457,-9.141,5.365\C,0,2.314,-8.973,8.107\C,0,-0.757,-6.058,5.7
 79\C,0,2.335,-6.11,1.965\C,0,5.465,-8.968,4.422\C,0,1.226,-8.25,7.755\
 C,0,0.107,-8.117,8.63\C,0,-0.757,-7.265,8.011\C,0,-0.191,-6.899,6.728\
 C,0,-2.005,-6.837,8.669\C,0,0.025,-8.751,10.003\C,0,-0.643,-8.068,11.2
 17\C,0,-0.866,-9.024,12.375\O,0,-0.739,-8.55,13.523\O,0,-1.21,-10.192,
 12.089\C,0,-0.156,-5.832,4.532\C,0,-0.669,-4.922,3.536\C,0,0.206,-4.94
 5,2.47\C,0,1.26,-5.86,2.806\C,0,-1.853,-4.028,3.762\C,0,0.182,-4.178,1
 .173\C,0,-1.055,-3.366,0.836\C,0,3.427,-6.904,2.311\C,0,4.529,-7.184,1
 .431\C,0,5.431,-7.971,2.114\C,0,4.86,-8.208,3.42\C,0,4.516,-6.824,-0.0
 22\C,0,6.755,-8.516,1.615\C,0,7.42,-7.741,0.48\C,0,4.87,-9.139,5.664\C
 ,0,5.437,-9.871,6.774\C,0,4.524,-9.875,7.778\C,0,3.412,-9.117,7.329\C,
 0,6.738,-10.558,6.92\C,0,4.537,-10.691,9.042\C,0,5.019,-9.893,10.237\C
 ,0,4.08,-10.031,11.412\O,0,3.575,-8.969,11.83\O,0,3.845,-11.19,11.812\
 N,0,1.007,-7.536,6.637\N,0,1.002,-6.365,4.033\N,0,3.649,-7.553,3.467\N
 ,0,3.652,-8.675,6.086\Fe,0,2.258,-7.553,5.013\H,0,-1.686,-5.569,6.019\
 H,0,2.316,-5.623,1.005\H,0,6.418,-9.439,4.239\H,0,2.334,-9.411,9.085\H
 ,0,-1.677,-6.14,9.44\H,0,-2.746,-6.429,7.988\H,0,-2.345,-7.759,9.139\H
 ,0,0.999,-8.495,10.306\H,0,0.074,-9.856,9.977\H,0,-1.591,-7.597,11.021
 \H,0,0.034,-7.278,11.56\H,0,-1.732,-3.646,4.768\H,0,-1.898,-3.178,3.08
 8\H,0,-2.776,-4.598,3.706\H,0,4.603,-5.747,-0.139\H,0,5.288,-7.325,-0.
 593\H,0,3.54,-7.158,-0.366\H,0,7.47,-9.817,7.227\H,0,6.536,-11.273,7.7
 24\H,0,7.033,-11.061,6.01\H,0,4.91,-11.691,9.02\H,0,3.545,-11.02,9.192
 \H,0,4.974,-8.851,9.953\H,0,6.036,-10.179,10.508\H,0,4.5711661,-11.783
 5636,12.0168537\H,0,0.13689903,-8.40003863,13.88619758\H,0,-1.26640411
 ,-2.46516465,1.37331181\H,0,6.9546156,-7.69729279,-0.48250041\H,0,2.08
 745112,-4.17228276,8.29694589\H,0,1.91979822,-12.56241773,2.02577187\H
 ,0,8.35142881,-7.24157275,0.64707123\H,0,7.198495,-9.39461495,2.034818
 95\H,0,-1.71576114,-3.69432267,0.06108133\H,0,1.01764659,-4.2052942,0.
 50528014\\Version=ES64L-G16RevA.03\State=2-A\HF=-3879.1108271\S2=0.799
 96\S2-1=0.\S2A=0.750823\RMSD=1.529e-09\Dipole=-0.4751526,1.1505612,-3.
 5261116\Quadrupole=-8.0674176,0.8484015,7.2190161,-32.1355816,41.42260
 97,-18.309107\PG=C01 [X(C41H46Fe1N6O4S1)]\\@


 NO SCIENCE HAS EVER MADE MORE RAPID PROGRESS IN A
 SHORTER TIME THAN CHEMISTRY.
   -- MARTIN HEINRICH KLOPROTH, 1791
 (FIRST PROFESSOR OF CHEMISTRY AT THE UNIVERSITY OF BERLIN)
 Job cpu time:       4 days  4 hours 40 minutes  5.5 seconds.
 Elapsed time:       1 days  1 hours 14 minutes 42.4 seconds.
 File lengths (MBytes):  RWF=   4261 Int=      0 D2E=      0 Chk=    310 Scr=      1
 Normal termination of Gaussian 16 at Tue Jan 17 12:26:39 2023.
