 Initial command:
 /afs/math/software/gaussian/g16.A03/g16/l1.exe "/scratch/zhartovska_gaussian.emc1ZxO/Gau-4872.inp" -scrdir="/scratch/zhartovska_gaussian.emc1ZxO/"
 Entering Link 1 = /afs/math/software/gaussian/g16.A03/g16/l1.exe PID=     27758.
  
 Copyright (c) 1988,1990,1992,1993,1995,1998,2003,2009,2016,
            Gaussian, Inc.  All Rights Reserved.
  
 This is part of the Gaussian(R) 16 program.  It is based on
 the Gaussian(R) 09 system (copyright 2009, Gaussian, Inc.),
 the Gaussian(R) 03 system (copyright 2003, Gaussian, Inc.),
 the Gaussian(R) 98 system (copyright 1998, Gaussian, Inc.),
 the Gaussian(R) 94 system (copyright 1995, Gaussian, Inc.),
 the Gaussian 92(TM) system (copyright 1992, Gaussian, Inc.),
 the Gaussian 90(TM) system (copyright 1990, Gaussian, Inc.),
 the Gaussian 88(TM) system (copyright 1988, Gaussian, Inc.),
 the Gaussian 86(TM) system (copyright 1986, Carnegie Mellon
 University), and the Gaussian 82(TM) system (copyright 1983,
 Carnegie Mellon University). Gaussian is a federally registered
 trademark of Gaussian, Inc.
  
 This software contains proprietary and confidential information,
 including trade secrets, belonging to Gaussian, Inc.
  
 This software is provided under written license and may be
 used, copied, transmitted, or stored only in accord with that
 written license.
  
 The following legend is applicable only to US Government
 contracts under FAR:
  
                    RESTRICTED RIGHTS LEGEND
  
 Use, reproduction and disclosure by the US Government is
 subject to restrictions as set forth in subparagraphs (a)
 and (c) of the Commercial Computer Software - Restricted
 Rights clause in FAR 52.227-19.
  
 Gaussian, Inc.
 340 Quinnipiac St., Bldg. 40, Wallingford CT 06492
  
  
 ---------------------------------------------------------------
 Warning -- This program may not be used in any manner that
 competes with the business of Gaussian, Inc. or will provide
 assistance to any competitor of Gaussian, Inc.  The licensee
 of this program is prohibited from giving any competitor of
 Gaussian, Inc. access to this program.  By using this program,
 the user acknowledges that Gaussian, Inc. is engaged in the
 business of creating and licensing software in the field of
 computational chemistry and represents and warrants to the
 licensee that it is not a competitor of Gaussian, Inc. and that
 it will not use this program in any manner prohibited above.
 ---------------------------------------------------------------
  

 Cite this work as:
 Gaussian 16, Revision A.03,
 M. J. Frisch, G. W. Trucks, H. B. Schlegel, G. E. Scuseria, 
 M. A. Robb, J. R. Cheeseman, G. Scalmani, V. Barone, 
 G. A. Petersson, H. Nakatsuji, X. Li, M. Caricato, A. V. Marenich, 
 J. Bloino, B. G. Janesko, R. Gomperts, B. Mennucci, H. P. Hratchian, 
 J. V. Ortiz, A. F. Izmaylov, J. L. Sonnenberg, D. Williams-Young, 
 F. Ding, F. Lipparini, F. Egidi, J. Goings, B. Peng, A. Petrone, 
 T. Henderson, D. Ranasinghe, V. G. Zakrzewski, J. Gao, N. Rega, 
 G. Zheng, W. Liang, M. Hada, M. Ehara, K. Toyota, R. Fukuda, 
 J. Hasegawa, M. Ishida, T. Nakajima, Y. Honda, O. Kitao, H. Nakai, 
 T. Vreven, K. Throssell, J. A. Montgomery, Jr., J. E. Peralta, 
 F. Ogliaro, M. J. Bearpark, J. J. Heyd, E. N. Brothers, K. N. Kudin, 
 V. N. Staroverov, T. A. Keith, R. Kobayashi, J. Normand, 
 K. Raghavachari, A. P. Rendell, J. C. Burant, S. S. Iyengar, 
 J. Tomasi, M. Cossi, J. M. Millam, M. Klene, C. Adamo, R. Cammi, 
 J. W. Ochterski, R. L. Martin, K. Morokuma, O. Farkas, 
 J. B. Foresman, and D. J. Fox, Gaussian, Inc., Wallingford CT, 2016.
 
 ******************************************
 Gaussian 16:  ES64L-G16RevA.03 25-Dec-2016
                17-Jan-2023 
 ******************************************
 %nprocs=12
 Will use up to   12 processors via shared memory.
 %mem=16GB
 %chk=1qpu_II_Q.chk
 ----------------------------------------------------------------------
 # PBE1PBE/def2TZVP empiricaldispersion=GD3BJ int=(grid=ultrafine) geom
 =check guess=read scrf=(smd,solvent=Chloroform)
 ----------------------------------------------------------------------
 1/29=2,38=1,172=1/1;
 2/12=2,40=1/2;
 3/5=44,7=101,11=2,14=-4,25=1,30=1,70=32201,72=7,74=-13,75=-5,116=-2,124=41/1,2,3;
 4/5=1/1;
 5/5=2,38=6,53=7/2;
 6/7=2,8=2,9=2,10=2,28=1/1;
 99/5=1,9=1/99;
 --------------
 1qpu_II_Q_solv
 --------------
 Structure from the checkpoint file:  "1qpu_II_Q.chk"
 Charge =  0 Multiplicity = 5
 Z-Matrix found in chk file.
 C,0,2.282,-5.169,8.634
 C,0,3.509,-5.724,7.905
 S,0,3.301,-5.824,6.104
 C,0,4.897,-5.355,5.406
 H,0,2.46731386,-5.15936603,9.68778649
 H,0,1.43388655,-5.787553,8.42664582
 H,0,4.324,-5.028,8.095
 H,0,3.791,-6.69,8.319
 H,0,5.164,-4.376,5.804
 H,0,5.661,-6.086,5.662
 H,0,4.798,-5.274,4.324
 C,0,0.966,-12.429,2.492
 C,0,0.992,-11.18,3.345
 N,0,-0.055,-10.84,4.164
 C,0,1.929,-10.176,3.425
 C,0,0.226,-9.654,4.709
 N,0,1.436,-9.215,4.325
 H,0,0.21168143,-12.33130538,1.73943156
 H,0,0.7481295,-13.27674538,3.10743498
 H,0,-0.949,-11.309,4.18
 H,0,2.864,-10.127,2.888
 H,0,-0.457,-9.141,5.365
 C,0,2.314,-8.973,8.107
 C,0,-0.757,-6.058,5.779
 C,0,2.335,-6.11,1.965
 C,0,5.465,-8.968,4.422
 C,0,1.226,-8.25,7.755
 C,0,0.107,-8.117,8.63
 C,0,-0.757,-7.265,8.011
 C,0,-0.191,-6.899,6.728
 C,0,-2.005,-6.837,8.669
 C,0,0.025,-8.751,10.003
 C,0,-0.643,-8.068,11.217
 C,0,-0.866,-9.024,12.375
 O,0,-0.739,-8.55,13.523
 O,0,-1.21,-10.192,12.089
 C,0,-0.156,-5.832,4.532
 C,0,-0.669,-4.922,3.536
 C,0,0.206,-4.945,2.47
 C,0,1.26,-5.86,2.806
 C,0,-1.853,-4.028,3.762
 C,0,0.182,-4.178,1.173
 C,0,-1.055,-3.366,0.836
 C,0,3.427,-6.904,2.311
 C,0,4.529,-7.184,1.431
 C,0,5.431,-7.971,2.114
 C,0,4.86,-8.208,3.42
 C,0,4.516,-6.824,-0.022
 C,0,6.755,-8.516,1.615
 C,0,7.42,-7.741,0.48
 C,0,4.87,-9.139,5.664
 C,0,5.437,-9.871,6.774
 C,0,4.524,-9.875,7.778
 C,0,3.412,-9.117,7.329
 C,0,6.738,-10.558,6.92
 C,0,4.537,-10.691,9.042
 C,0,5.019,-9.893,10.237
 C,0,4.08,-10.031,11.412
 O,0,3.575,-8.969,11.83
 O,0,3.845,-11.19,11.812
 N,0,1.007,-7.536,6.637
 N,0,1.002,-6.365,4.033
 N,0,3.649,-7.553,3.467
 N,0,3.652,-8.675,6.086
 Fe,0,2.258,-7.553,5.013
 H,0,-1.686,-5.569,6.019
 H,0,2.316,-5.623,1.005
 H,0,6.418,-9.439,4.239
 H,0,2.334,-9.411,9.085
 H,0,-1.677,-6.14,9.44
 H,0,-2.746,-6.429,7.988
 H,0,-2.345,-7.759,9.139
 H,0,0.999,-8.495,10.306
 H,0,0.074,-9.856,9.977
 H,0,-1.591,-7.597,11.021
 H,0,0.034,-7.278,11.56
 H,0,-1.732,-3.646,4.768
 H,0,-1.898,-3.178,3.088
 H,0,-2.776,-4.598,3.706
 H,0,4.603,-5.747,-0.139
 H,0,5.288,-7.325,-0.593
 H,0,3.54,-7.158,-0.366
 H,0,7.47,-9.817,7.227
 H,0,6.536,-11.273,7.724
 H,0,7.033,-11.061,6.01
 H,0,4.91,-11.691,9.02
 H,0,3.545,-11.02,9.192
 H,0,4.974,-8.851,9.953
 H,0,6.036,-10.179,10.508
 H,0,4.5711661,-11.7835636,12.0168537
 H,0,0.13689903,-8.40003863,13.88619758
 H,0,-1.26640411,-2.46516465,1.37331181
 H,0,6.9546156,-7.69729279,-0.48250041
 H,0,2.08745112,-4.17228276,8.29694589
 H,0,1.91979822,-12.56241773,2.02577187
 H,0,8.35142881,-7.24157275,0.64707123
 H,0,7.198495,-9.39461495,2.03481895
 H,0,-1.71576114,-3.69432267,0.06108133
 H,0,1.01764659,-4.2052942,0.50528014
 Recover connectivity data from disk.
 Stoichiometry    C41H46FeN6O4S(5)
 Framework group  C1[X(C41H46FeN6O4S)]
 Deg. of freedom   291
 Full point group                 C1      NOp   1
 Largest Abelian subgroup         C1      NOp   1
 Largest concise Abelian subgroup C1      NOp   1
                         Standard orientation:                         
 ---------------------------------------------------------------------
 Center     Atomic      Atomic             Coordinates (Angstroms)
 Number     Number       Type             X           Y           Z
 ---------------------------------------------------------------------
      1          6           0        1.825752    1.252355   -3.086128
      2          6           0        1.072856   -0.076888   -2.980033
      3         16           0       -0.585717    0.082651   -2.258544
      4          6           0       -1.628464   -1.060936   -3.185511
      5          1           0        2.798313    1.079553   -3.497423
      6          1           0        1.922062    1.686380   -2.112862
      7          1           0        0.945707   -0.443544   -3.996958
      8          1           0        1.667100   -0.806443   -2.433499
      9          1           0       -1.540405   -0.814697   -4.243691
     10          1           0       -1.322463   -2.090490   -3.012380
     11          1           0       -2.664881   -0.917830   -2.881459
     12          6           0       -1.977414   -1.100435    5.408808
     13          6           0       -1.484939   -0.518347    4.102313
     14          7           0       -0.620788    0.546696    4.063641
     15          6           0       -1.814848   -0.836854    2.805355
     16          6           0       -0.447308    0.880897    2.782705
     17          7           0       -1.120563    0.052896    1.966974
     18          1           0       -2.597910   -0.384887    5.906679
     19          1           0       -1.140219   -1.340335    6.030461
     20          1           0       -0.341983    1.091086    4.866984
     21          1           0       -2.490618   -1.616519    2.488413
     22          1           0        0.158643    1.717861    2.478881
     23          6           0        2.282875   -0.649626    0.218819
     24          6           0       -0.180020    3.497667   -0.067466
     25          6           0       -4.304226    0.845468   -0.325393
     26          6           0       -1.742306   -3.326906   -0.152844
     27          6           0        1.939749    0.658979    0.232795
     28          6           0        2.921456    1.683261    0.383036
     29          6           0        2.254750    2.865283    0.265184
     30          6           0        0.846805    2.574813    0.081558
     31          6           0        2.975545    4.151039    0.295799
     32          6           0        4.404935    1.419180    0.535877
     33          6           0        5.497493    2.318467   -0.083888
     34          6           0        6.880410    2.020923    0.467145
     35          8           0        7.834465    2.127103   -0.331112
     36          8           0        6.959555    1.746295    1.684795
     37          6           0       -1.523782    3.106942   -0.161928
     38          6           0       -2.621504    4.018632   -0.378982
     39          6           0       -3.773804    3.263782   -0.449087
     40          6           0       -3.391737    1.889955   -0.282770
     41          6           0       -2.441251    5.486181   -0.635844
     42          6           0       -5.201396    3.684581   -0.685696
     43          6           0       -5.528694    5.166449   -0.680472
     44          6           0       -3.949460   -0.501653   -0.280428
     45          6           0       -4.895900   -1.583832   -0.299036
     46          6           0       -4.190791   -2.767708   -0.272216
     47          6           0       -2.792824   -2.409419   -0.200375
     48          6           0       -6.370809   -1.371547   -0.155660
     49          6           0       -4.742565   -4.179894   -0.288919
     50          6           0       -6.129119   -4.356305   -0.903264
     51          6           0       -0.418234   -2.914098   -0.105400
     52          6           0        0.734324   -3.786411   -0.095803
     53          6           0        1.840490   -3.010932    0.033151
     54          6           0        1.399861   -1.662631    0.058408
     55          6           0        0.837412   -5.259024   -0.177488
     56          6           0        3.250818   -3.445904    0.325546
     57          6           0        4.110100   -3.488562   -0.922239
     58          6           0        5.417540   -2.759492   -0.721118
     59          8           0        5.628473   -1.801759   -1.493029
     60          8           0        6.130999   -3.135153    0.231962
     61          7           0        0.727846    1.220159    0.077713
     62          7           0       -2.051753    1.844920   -0.110924
     63          7           0       -2.718290   -1.033871   -0.192189
     64          7           0        0.063509   -1.632881   -0.047847
     65         26           0       -1.018939    0.150369   -0.005700
     66          1           0        0.075072    4.543025   -0.111256
     67          1           0       -5.340214    1.118064   -0.432865
     68          1           0       -1.951486   -4.385104   -0.152369
     69          1           0        3.323438   -0.899125    0.279691
     70          1           0        3.480991    4.198865   -0.668603
     71          1           0        2.342439    5.007450    0.508034
     72          1           0        3.712627    3.982789    1.080008
     73          1           0        4.471443    0.694863   -0.223704
     74          1           0        4.652499    0.830191    1.439153
     75          1           0        5.344420    3.378278    0.027153
     76          1           0        5.514732    2.115821   -1.160325
     77          1           0       -1.598312    5.554278   -1.312171
     78          1           0       -3.292357    5.956507   -1.118765
     79          1           0       -2.200802    6.006918    0.286644
     80          1           0       -6.769641   -0.912327   -1.056347
     81          1           0       -6.913134   -2.281234    0.071009
     82          1           0       -6.456310   -0.683448    0.682002
     83          1           0        0.823853   -5.533137   -1.228122
     84          1           0        1.818200   -5.449986    0.269763
     85          1           0        0.049440   -5.749940    0.375896
     86          1           0        3.423164   -4.264495    0.988734
     87          1           0        3.637755   -2.749194    1.018136
     88          1           0        3.582229   -2.929352   -1.681898
     89          1           0        4.276615   -4.517951   -1.241859
     90          1           0        6.359481   -4.063019    0.323935
     91          1           0        8.001145    1.434598   -0.974738
     92          1           0       -5.210578    5.787468   -1.491667
     93          1           0       -6.982858   -3.915208   -0.432665
     94          1           0        1.282956    1.919922   -3.722231
     95          1           0       -2.542460   -1.987817    5.213421
     96          1           0       -6.247104   -4.921034   -1.804408
     97          1           0       -4.191055   -5.006609    0.107667
     98          1           0       -6.077576    5.590242    0.134407
     99          1           0       -5.966410    2.955537   -0.853465
 ---------------------------------------------------------------------
 Rotational constants (GHZ):           0.0723784           0.0429958           0.0339845
 Standard basis: def2TZVP (5D, 7F)
 There are  2206 symmetry adapted cartesian basis functions of A   symmetry.
 There are  1939 symmetry adapted basis functions of A   symmetry.
  1939 basis functions,  3140 primitive gaussians,  2206 cartesian basis functions
   206 alpha electrons      202 beta electrons
       nuclear repulsion energy      8930.8067496212 Hartrees.
 NAtoms=   99 NActive=   99 NUniq=   99 SFac= 1.00D+00 NAtFMM=   60 NAOKFM=T Big=T
 Integral buffers will be    131072 words long.
 Raffenetti 2 integral format.
 Two-electron integral symmetry is turned on.
 Nuclear repulsion after empirical dispersion term =     8930.6559270353 Hartrees.
 ------------------------------------------------------------------------------
 Polarizable Continuum Model (PCM)
 =================================
 Model                : PCM.
 Atomic radii         : SMD-Coulomb.
 Polarization charges : Total charges.
 Charge compensation  : None.
 Solution method      : On-the-fly selection.
 Cavity type          : VdW (van der Waals Surface) (Alpha=1.000).
 Cavity algorithm     : GePol (No added spheres)
                        Default sphere list used, NSphG=   99.
                        Lebedev-Laikov grids with approx.  5.0 points / Ang**2.
                        Smoothing algorithm: York/Karplus (Gamma=1.0000).
                        Polarization charges: spherical gaussians, with
                                              point-specific exponents (IZeta= 3).
                        Self-potential: point-specific (ISelfS= 7).
                        Self-field    : sphere-specific E.n sum rule (ISelfD= 2).
 Solvent              : Chloroform, Eps=   4.711300 Eps(inf)=   2.090627
 ------------------------------------------------------------------------------
 ------------------------------------------------------------------------------
 Atomic radii for non-electrostatic terms: SMD-CDS.
 ------------------------------------------------------------------------------
 Nuclear repulsion after PCM non-electrostatic terms =     8930.6374891658 Hartrees.
 One-electron integrals computed using PRISM.
   1 Symmetry operations used in ECPInt.
 ECPInt:  NShTT=  299151 NPrTT=  925475 LenC2=  220277 LenP2D=  440878.
 LDataN:  DoStor=T MaxTD1= 6 Len=  172
 NBasis=  1939 RedAO= T EigKep=  2.66D-06  NBF=  1939
 NBsUse=  1939 1.00D-06 EigRej= -1.00D+00 NBFU=  1939
 Initial guess from the checkpoint file:  "1qpu_II_Q.chk"
 B after Tr=    -0.000000    0.000000   -0.000000
         Rot=    1.000000    0.000000    0.000000   -0.000000 Ang=   0.00 deg.
 Initial guess <Sx>= 0.0000 <Sy>= 0.0000 <Sz>= 2.0000 <S**2>= 6.6868 S= 2.1338
 Requested convergence on RMS density matrix=1.00D-08 within 128 cycles.
 Requested convergence on MAX density matrix=1.00D-06.
 Requested convergence on             energy=1.00D-06.
 No special actions if energy rises.
 Inv3:  Mode=1 IEnd=   138924075.
 Iteration    1 A*A^-1 deviation from unit magnitude is 1.39D-14 for   6788.
 Iteration    1 A*A^-1 deviation from orthogonality  is 3.91D-15 for   6788   6758.
 Iteration    1 A^-1*A deviation from unit magnitude is 1.35D-14 for   6788.
 Iteration    1 A^-1*A deviation from orthogonality  is 1.29D-14 for   5346   5326.
 EnCoef did     5 forward-backward iterations
 Restarting incremental Fock formation.
 Restarting incremental Fock formation.
 Restarting incremental Fock formation.
 Restarting incremental Fock formation.
 Error on total polarization charges =  0.06828
 SCF Done:  E(UPBE1PBE) =  -3879.25067311     A.U. after   83 cycles
            NFock= 83  Conv=0.17D-08     -V/T= 2.0032
 <Sx>= 0.0000 <Sy>= 0.0000 <Sz>= 2.0000 <S**2>= 6.5879 S= 2.1149
 <L.S>= 0.000000000000E+00
 SMD-CDS (non-electrostatic) energy       (kcal/mol) =     -11.57
 (included in total energy above)
 Annihilation of the first spin contaminant:
 S**2 before annihilation     6.5879,   after     6.0812

 **********************************************************************

            Population analysis using the SCF density.

 **********************************************************************

 Orbital symmetries:
 Alpha Orbitals:
       Occupied  (A) (A) (A) (A) (A) (A) (A) (A) (A) (A) (A) (A)
                 (A) (A) (A) (A) (A) (A) (A) (A) (A) (A) (A) (A)
                 (A) (A) (A) (A) (A) (A) (A) (A) (A) (A) (A) (A)
                 (A) (A) (A) (A) (A) (A) (A) (A) (A) (A) (A) (A)
                 (A) (A) (A) (A) (A) (A) (A) (A) (A) (A) (A) (A)
                 (A) (A) (A) (A) (A) (A) (A) (A) (A) (A) (A) (A)
                 (A) (A) (A) (A) (A) (A) (A) (A) (A) (A) (A) (A)
                 (A) (A) (A) (A) (A) (A) (A) (A) (A) (A) (A) (A)
                 (A) (A) (A) (A) (A) (A) (A) (A) (A) (A) (A) (A)
                 (A) (A) (A) (A) (A) (A) (A) (A) (A) (A) (A) (A)
                 (A) (A) (A) (A) (A) (A) (A) (A) (A) (A) (A) (A)
                 (A) (A) (A) (A) (A) (A) (A) (A) (A) (A) (A) (A)
                 (A) (A) (A) (A) (A) (A) (A) (A) (A) (A) (A) (A)
                 (A) (A) (A) (A) (A) (A) (A) (A) (A) (A) (A) (A)
                 (A) (A) (A) (A) (A) (A) (A) (A) (A) (A) (A) (A)
                 (A) (A) (A) (A) (A) (A) (A) (A) (A) (A) (A) (A)
                 (A) (A) (A) (A) (A) (A) (A) (A) (A) (A) (A) (A)
                 (A) (A)
       Virtual   (A) (A) (A) (A) (A) (A) (A) (A) (A) (A) (A) (A)
                 (A) (A) (A) (A) (A) (A) (A) (A) (A) (A) (A) (A)
                 (A) (A) (A) (A) (A) (A) (A) (A) (A) (A) (A) (A)
                 (A) (A) (A) (A) (A) (A) (A) (A) (A) (A) (A) (A)
                 (A) (A) (A) (A) (A) (A) (A) (A) (A) (A) (A) (A)
                 (A) (A) (A) (A) (A) (A) (A) (A) (A) (A) (A) (A)
                 (A) (A) (A) (A) (A) (A) (A) (A) (A) (A) (A) (A)
                 (A) (A) (A) (A) (A) (A) (A) (A) (A) (A) (A) (A)
                 (A) (A) (A) (A) (A) (A) (A) (A) (A) (A) (A) (A)
                 (A) (A) (A) (A) (A) (A) (A) (A) (A) (A) (A) (A)
                 (A) (A) (A) (A) (A) (A) (A) (A) (A) (A) (A) (A)
                 (A) (A) (A) (A) (A) (A) (A) (A) (A) (A) (A) (A)
                 (A) (A) (A) (A) (A) (A) (A) (A) (A) (A) (A) (A)
                 (A) (A) (A) (A) (A) (A) (A) (A) (A) (A) (A) (A)
                 (A) (A) (A) (A) (A) (A) (A) (A) (A) (A) (A) (A)
                 (A) (A) (A) (A) (A) (A) (A) (A) (A) (A) (A) (A)
                 (A) (A) (A) (A) (A) (A) (A) (A) (A) (A) (A) (A)
                 (A) (A) (A) (A) (A) (A) (A) (A) (A) (A) (A) (A)
                 (A) (A) (A) (A) (A) (A) (A) (A) (A) (A) (A) (A)
                 (A) (A) (A) (A) (A) (A) (A) (A) (A) (A) (A) (A)
                 (A) (A) (A) (A) (A) (A) (A) (A) (A) (A) (A) (A)
                 (A) (A) (A) (A) (A) (A) (A) (A) (A) (A) (A) (A)
                 (A) (A) (A) (A) (A) (A) (A) (A) (A) (A) (A) (A)
                 (A) (A) (A) (A) (A) (A) (A) (A) (A) (A) (A) (A)
                 (A) (A) (A) (A) (A) (A) (A) (A) (A) (A) (A) (A)
                 (A) (A) (A) (A) (A) (A) (A) (A) (A) (A) (A) (A)
                 (A) (A) (A) (A) (A) (A) (A) (A) (A) (A) (A) (A)
                 (A) (A) (A) (A) (A) (A) (A) (A) (A) (A) (A) (A)
                 (A) (A) (A) (A) (A) (A) (A) (A) (A) (A) (A) (A)
                 (A) (A) (A) (A) (A) (A) (A) (A) (A) (A) (A) (A)
                 (A) (A) (A) (A) (A) (A) (A) (A) (A) (A) (A) (A)
                 (A) (A) (A) (A) (A) (A) (A) (A) (A) (A) (A) (A)
                 (A) (A) (A) (A) (A) (A) (A) (A) (A) (A) (A) (A)
                 (A) (A) (A) (A) (A) (A) (A) (A) (A) (A) (A) (A)
                 (A) (A) (A) (A) (A) (A) (A) (A) (A) (A) (A) (A)
                 (A) (A) (A) (A) (A) (A) (A) (A) (A) (A) (A) (A)
                 (A) (A) (A) (A) (A) (A) (A) (A) (A) (A) (A) (A)
                 (A) (A) (A) (A) (A) (A) (A) (A) (A) (A) (A) (A)
                 (A) (A) (A) (A) (A) (A) (A) (A) (A) (A) (A) (A)
                 (A) (A) (A) (A) (A) (A) (A) (A) (A) (A) (A) (A)
                 (A) (A) (A) (A) (A) (A) (A) (A) (A) (A) (A) (A)
                 (A) (A) (A) (A) (A) (A) (A) (A) (A) (A) (A) (A)
                 (A) (A) (A) (A) (A) (A) (A) (A) (A) (A) (A) (A)
                 (A) (A) (A) (A) (A) (A) (A) (A) (A) (A) (A) (A)
                 (A) (A) (A) (A) (A) (A) (A) (A) (A) (A) (A) (A)
                 (A) (A) (A) (A) (A) (A) (A) (A) (A) (A) (A) (A)
                 (A) (A) (A) (A) (A) (A) (A) (A) (A) (A) (A) (A)
                 (A) (A) (A) (A) (A) (A) (A) (A) (A) (A) (A) (A)
                 (A) (A) (A) (A) (A) (A) (A) (A) (A) (A) (A) (A)
                 (A) (A) (A) (A) (A) (A) (A) (A) (A) (A) (A) (A)
                 (A) (A) (A) (A) (A) (A) (A) (A) (A) (A) (A) (A)
                 (A) (A) (A) (A) (A) (A) (A) (A) (A) (A) (A) (A)
                 (A) (A) (A) (A) (A) (A) (A) (A) (A) (A) (A) (A)
                 (A) (A) (A) (A) (A) (A) (A) (A) (A) (A) (A) (A)
                 (A) (A) (A) (A) (A) (A) (A) (A) (A) (A) (A) (A)
                 (A) (A) (A) (A) (A) (A) (A) (A) (A) (A) (A) (A)
                 (A) (A) (A) (A) (A) (A) (A) (A) (A) (A) (A) (A)
                 (A) (A) (A) (A) (A) (A) (A) (A) (A) (A) (A) (A)
                 (A) (A) (A) (A) (A) (A) (A) (A) (A) (A) (A) (A)
                 (A) (A) (A) (A) (A) (A) (A) (A) (A) (A) (A) (A)
                 (A) (A) (A) (A) (A) (A) (A) (A) (A) (A) (A) (A)
                 (A) (A) (A) (A) (A) (A) (A) (A) (A) (A) (A) (A)
                 (A) (A) (A) (A) (A) (A) (A) (A) (A) (A) (A) (A)
                 (A) (A) (A) (A) (A) (A) (A) (A) (A) (A) (A) (A)
                 (A) (A) (A) (A) (A) (A) (A) (A) (A) (A) (A) (A)
                 (A) (A) (A) (A) (A) (A) (A) (A) (A) (A) (A) (A)
                 (A) (A) (A) (A) (A) (A) (A) (A) (A) (A) (A) (A)
                 (A) (A) (A) (A) (A) (A) (A) (A) (A) (A) (A) (A)
                 (A) (A) (A) (A) (A) (A) (A) (A) (A) (A) (A) (A)
                 (A) (A) (A) (A) (A) (A) (A) (A) (A) (A) (A) (A)
                 (A) (A) (A) (A) (A) (A) (A) (A) (A) (A) (A) (A)
                 (A) (A) (A) (A) (A) (A) (A) (A) (A) (A) (A) (A)
                 (A) (A) (A) (A) (A) (A) (A) (A) (A) (A) (A) (A)
                 (A) (A) (A) (A) (A) (A) (A) (A) (A) (A) (A) (A)
                 (A) (A) (A) (A) (A) (A) (A) (A) (A) (A) (A) (A)
                 (A) (A) (A) (A) (A) (A) (A) (A) (A) (A) (A) (A)
                 (A) (A) (A) (A) (A) (A) (A) (A) (A) (A) (A) (A)
                 (A) (A) (A) (A) (A) (A) (A) (A) (A) (A) (A) (A)
                 (A) (A) (A) (A) (A) (A) (A) (A) (A) (A) (A) (A)
                 (A) (A) (A) (A) (A) (A) (A) (A) (A) (A) (A) (A)
                 (A) (A) (A) (A) (A) (A) (A) (A) (A) (A) (A) (A)
                 (A) (A) (A) (A) (A) (A) (A) (A) (A) (A) (A) (A)
                 (A) (A) (A) (A) (A) (A) (A) (A) (A) (A) (A) (A)
                 (A) (A) (A) (A) (A) (A) (A) (A) (A) (A) (A) (A)
                 (A) (A) (A) (A) (A) (A) (A) (A) (A) (A) (A) (A)
                 (A) (A) (A) (A) (A) (A) (A) (A) (A) (A) (A) (A)
                 (A) (A) (A) (A) (A) (A) (A) (A) (A) (A) (A) (A)
                 (A) (A) (A) (A) (A) (A) (A) (A) (A) (A) (A) (A)
                 (A) (A) (A) (A) (A) (A) (A) (A) (A) (A) (A) (A)
                 (A) (A) (A) (A) (A) (A) (A) (A) (A) (A) (A) (A)
                 (A) (A) (A) (A) (A) (A) (A) (A) (A) (A) (A) (A)
                 (A) (A) (A) (A) (A) (A) (A) (A) (A) (A) (A) (A)
                 (A) (A) (A) (A) (A) (A) (A) (A) (A) (A) (A) (A)
                 (A) (A) (A) (A) (A) (A) (A) (A) (A) (A) (A) (A)
                 (A) (A) (A) (A) (A) (A) (A) (A) (A) (A) (A) (A)
                 (A) (A) (A) (A) (A) (A) (A) (A) (A) (A) (A) (A)
                 (A) (A) (A) (A) (A) (A) (A) (A) (A) (A) (A) (A)
                 (A) (A) (A) (A) (A) (A) (A) (A) (A) (A) (A) (A)
                 (A) (A) (A) (A) (A) (A) (A) (A) (A) (A) (A) (A)
                 (A) (A) (A) (A) (A) (A) (A) (A) (A) (A) (A) (A)
                 (A) (A) (A) (A) (A) (A) (A) (A) (A) (A) (A) (A)
                 (A) (A) (A) (A) (A) (A) (A) (A) (A) (A) (A) (A)
                 (A) (A) (A) (A) (A) (A) (A) (A) (A) (A) (A) (A)
                 (A) (A) (A) (A) (A) (A) (A) (A) (A) (A) (A) (A)
                 (A) (A) (A) (A) (A) (A) (A) (A) (A) (A) (A) (A)
                 (A) (A) (A) (A) (A) (A) (A) (A) (A) (A) (A) (A)
                 (A) (A) (A) (A) (A) (A) (A) (A) (A) (A) (A) (A)
                 (A) (A) (A) (A) (A) (A) (A) (A) (A) (A) (A) (A)
                 (A) (A) (A) (A) (A) (A) (A) (A) (A) (A) (A) (A)
                 (A) (A) (A) (A) (A) (A) (A) (A) (A) (A) (A) (A)
                 (A) (A) (A) (A) (A) (A) (A) (A) (A) (A) (A) (A)
                 (A) (A) (A) (A) (A) (A) (A) (A) (A) (A) (A) (A)
                 (A) (A) (A) (A) (A) (A) (A) (A) (A) (A) (A) (A)
                 (A) (A) (A) (A) (A) (A) (A) (A) (A) (A) (A) (A)
                 (A) (A) (A) (A) (A) (A) (A) (A) (A) (A) (A) (A)
                 (A) (A) (A) (A) (A) (A) (A) (A) (A) (A) (A) (A)
                 (A) (A) (A) (A) (A) (A) (A) (A) (A) (A) (A) (A)
                 (A) (A) (A) (A) (A) (A) (A) (A) (A) (A) (A) (A)
                 (A) (A) (A) (A) (A) (A) (A) (A) (A) (A) (A) (A)
                 (A) (A) (A) (A) (A) (A) (A) (A) (A) (A) (A) (A)
                 (A) (A) (A) (A) (A) (A) (A) (A) (A) (A) (A) (A)
                 (A) (A) (A) (A) (A) (A) (A) (A) (A) (A) (A) (A)
                 (A) (A) (A) (A) (A) (A) (A) (A) (A) (A) (A) (A)
                 (A) (A) (A) (A) (A) (A) (A) (A) (A) (A) (A) (A)
                 (A) (A) (A) (A) (A) (A) (A) (A) (A) (A) (A) (A)
                 (A) (A) (A) (A) (A) (A) (A) (A) (A) (A) (A) (A)
                 (A) (A) (A) (A) (A) (A) (A) (A) (A) (A) (A) (A)
                 (A) (A) (A) (A) (A) (A) (A) (A) (A) (A) (A) (A)
                 (A) (A) (A) (A) (A) (A) (A) (A) (A) (A) (A) (A)
                 (A) (A) (A) (A) (A) (A) (A) (A) (A) (A) (A) (A)
                 (A) (A) (A) (A) (A) (A) (A) (A) (A) (A) (A) (A)
                 (A) (A) (A) (A) (A) (A) (A) (A) (A) (A) (A) (A)
                 (A) (A) (A) (A) (A) (A) (A) (A) (A) (A) (A) (A)
                 (A) (A) (A) (A) (A) (A) (A) (A) (A) (A) (A) (A)
                 (A) (A) (A) (A) (A) (A) (A) (A) (A) (A) (A) (A)
                 (A) (A) (A) (A) (A) (A) (A) (A) (A) (A) (A) (A)
                 (A) (A) (A) (A) (A) (A) (A) (A) (A) (A) (A) (A)
                 (A) (A) (A) (A) (A) (A) (A) (A) (A) (A) (A) (A)
                 (A) (A) (A) (A) (A) (A) (A) (A) (A) (A) (A) (A)
                 (A) (A) (A) (A) (A) (A) (A) (A) (A) (A) (A) (A)
                 (A) (A) (A) (A) (A) (A) (A) (A) (A) (A) (A) (A)
                 (A) (A) (A) (A) (A) (A) (A) (A) (A) (A) (A) (A)
                 (A) (A) (A) (A) (A) (A) (A) (A) (A) (A) (A) (A)
                 (A) (A) (A) (A) (A) (A) (A) (A) (A) (A) (A) (A)
                 (A) (A) (A) (A) (A)
 Beta  Orbitals:
       Occupied  (A) (A) (A) (A) (A) (A) (A) (A) (A) (A) (A) (A)
                 (A) (A) (A) (A) (A) (A) (A) (A) (A) (A) (A) (A)
                 (A) (A) (A) (A) (A) (A) (A) (A) (A) (A) (A) (A)
                 (A) (A) (A) (A) (A) (A) (A) (A) (A) (A) (A) (A)
                 (A) (A) (A) (A) (A) (A) (A) (A) (A) (A) (A) (A)
                 (A) (A) (A) (A) (A) (A) (A) (A) (A) (A) (A) (A)
                 (A) (A) (A) (A) (A) (A) (A) (A) (A) (A) (A) (A)
                 (A) (A) (A) (A) (A) (A) (A) (A) (A) (A) (A) (A)
                 (A) (A) (A) (A) (A) (A) (A) (A) (A) (A) (A) (A)
                 (A) (A) (A) (A) (A) (A) (A) (A) (A) (A) (A) (A)
                 (A) (A) (A) (A) (A) (A) (A) (A) (A) (A) (A) (A)
                 (A) (A) (A) (A) (A) (A) (A) (A) (A) (A) (A) (A)
                 (A) (A) (A) (A) (A) (A) (A) (A) (A) (A) (A) (A)
                 (A) (A) (A) (A) (A) (A) (A) (A) (A) (A) (A) (A)
                 (A) (A) (A) (A) (A) (A) (A) (A) (A) (A) (A) (A)
                 (A) (A) (A) (A) (A) (A) (A) (A) (A) (A) (A) (A)
                 (A) (A) (A) (A) (A) (A) (A) (A) (A) (A)
       Virtual   (A) (A) (A) (A) (A) (A) (A) (A) (A) (A) (A) (A)
                 (A) (A) (A) (A) (A) (A) (A) (A) (A) (A) (A) (A)
                 (A) (A) (A) (A) (A) (A) (A) (A) (A) (A) (A) (A)
                 (A) (A) (A) (A) (A) (A) (A) (A) (A) (A) (A) (A)
                 (A) (A) (A) (A) (A) (A) (A) (A) (A) (A) (A) (A)
                 (A) (A) (A) (A) (A) (A) (A) (A) (A) (A) (A) (A)
                 (A) (A) (A) (A) (A) (A) (A) (A) (A) (A) (A) (A)
                 (A) (A) (A) (A) (A) (A) (A) (A) (A) (A) (A) (A)
                 (A) (A) (A) (A) (A) (A) (A) (A) (A) (A) (A) (A)
                 (A) (A) (A) (A) (A) (A) (A) (A) (A) (A) (A) (A)
                 (A) (A) (A) (A) (A) (A) (A) (A) (A) (A) (A) (A)
                 (A) (A) (A) (A) (A) (A) (A) (A) (A) (A) (A) (A)
                 (A) (A) (A) (A) (A) (A) (A) (A) (A) (A) (A) (A)
                 (A) (A) (A) (A) (A) (A) (A) (A) (A) (A) (A) (A)
                 (A) (A) (A) (A) (A) (A) (A) (A) (A) (A) (A) (A)
                 (A) (A) (A) (A) (A) (A) (A) (A) (A) (A) (A) (A)
                 (A) (A) (A) (A) (A) (A) (A) (A) (A) (A) (A) (A)
                 (A) (A) (A) (A) (A) (A) (A) (A) (A) (A) (A) (A)
                 (A) (A) (A) (A) (A) (A) (A) (A) (A) (A) (A) (A)
                 (A) (A) (A) (A) (A) (A) (A) (A) (A) (A) (A) (A)
                 (A) (A) (A) (A) (A) (A) (A) (A) (A) (A) (A) (A)
                 (A) (A) (A) (A) (A) (A) (A) (A) (A) (A) (A) (A)
                 (A) (A) (A) (A) (A) (A) (A) (A) (A) (A) (A) (A)
                 (A) (A) (A) (A) (A) (A) (A) (A) (A) (A) (A) (A)
                 (A) (A) (A) (A) (A) (A) (A) (A) (A) (A) (A) (A)
                 (A) (A) (A) (A) (A) (A) (A) (A) (A) (A) (A) (A)
                 (A) (A) (A) (A) (A) (A) (A) (A) (A) (A) (A) (A)
                 (A) (A) (A) (A) (A) (A) (A) (A) (A) (A) (A) (A)
                 (A) (A) (A) (A) (A) (A) (A) (A) (A) (A) (A) (A)
                 (A) (A) (A) (A) (A) (A) (A) (A) (A) (A) (A) (A)
                 (A) (A) (A) (A) (A) (A) (A) (A) (A) (A) (A) (A)
                 (A) (A) (A) (A) (A) (A) (A) (A) (A) (A) (A) (A)
                 (A) (A) (A) (A) (A) (A) (A) (A) (A) (A) (A) (A)
                 (A) (A) (A) (A) (A) (A) (A) (A) (A) (A) (A) (A)
                 (A) (A) (A) (A) (A) (A) (A) (A) (A) (A) (A) (A)
                 (A) (A) (A) (A) (A) (A) (A) (A) (A) (A) (A) (A)
                 (A) (A) (A) (A) (A) (A) (A) (A) (A) (A) (A) (A)
                 (A) (A) (A) (A) (A) (A) (A) (A) (A) (A) (A) (A)
                 (A) (A) (A) (A) (A) (A) (A) (A) (A) (A) (A) (A)
                 (A) (A) (A) (A) (A) (A) (A) (A) (A) (A) (A) (A)
                 (A) (A) (A) (A) (A) (A) (A) (A) (A) (A) (A) (A)
                 (A) (A) (A) (A) (A) (A) (A) (A) (A) (A) (A) (A)
                 (A) (A) (A) (A) (A) (A) (A) (A) (A) (A) (A) (A)
                 (A) (A) (A) (A) (A) (A) (A) (A) (A) (A) (A) (A)
                 (A) (A) (A) (A) (A) (A) (A) (A) (A) (A) (A) (A)
                 (A) (A) (A) (A) (A) (A) (A) (A) (A) (A) (A) (A)
                 (A) (A) (A) (A) (A) (A) (A) (A) (A) (A) (A) (A)
                 (A) (A) (A) (A) (A) (A) (A) (A) (A) (A) (A) (A)
                 (A) (A) (A) (A) (A) (A) (A) (A) (A) (A) (A) (A)
                 (A) (A) (A) (A) (A) (A) (A) (A) (A) (A) (A) (A)
                 (A) (A) (A) (A) (A) (A) (A) (A) (A) (A) (A) (A)
                 (A) (A) (A) (A) (A) (A) (A) (A) (A) (A) (A) (A)
                 (A) (A) (A) (A) (A) (A) (A) (A) (A) (A) (A) (A)
                 (A) (A) (A) (A) (A) (A) (A) (A) (A) (A) (A) (A)
                 (A) (A) (A) (A) (A) (A) (A) (A) (A) (A) (A) (A)
                 (A) (A) (A) (A) (A) (A) (A) (A) (A) (A) (A) (A)
                 (A) (A) (A) (A) (A) (A) (A) (A) (A) (A) (A) (A)
                 (A) (A) (A) (A) (A) (A) (A) (A) (A) (A) (A) (A)
                 (A) (A) (A) (A) (A) (A) (A) (A) (A) (A) (A) (A)
                 (A) (A) (A) (A) (A) (A) (A) (A) (A) (A) (A) (A)
                 (A) (A) (A) (A) (A) (A) (A) (A) (A) (A) (A) (A)
                 (A) (A) (A) (A) (A) (A) (A) (A) (A) (A) (A) (A)
                 (A) (A) (A) (A) (A) (A) (A) (A) (A) (A) (A) (A)
                 (A) (A) (A) (A) (A) (A) (A) (A) (A) (A) (A) (A)
                 (A) (A) (A) (A) (A) (A) (A) (A) (A) (A) (A) (A)
                 (A) (A) (A) (A) (A) (A) (A) (A) (A) (A) (A) (A)
                 (A) (A) (A) (A) (A) (A) (A) (A) (A) (A) (A) (A)
                 (A) (A) (A) (A) (A) (A) (A) (A) (A) (A) (A) (A)
                 (A) (A) (A) (A) (A) (A) (A) (A) (A) (A) (A) (A)
                 (A) (A) (A) (A) (A) (A) (A) (A) (A) (A) (A) (A)
                 (A) (A) (A) (A) (A) (A) (A) (A) (A) (A) (A) (A)
                 (A) (A) (A) (A) (A) (A) (A) (A) (A) (A) (A) (A)
                 (A) (A) (A) (A) (A) (A) (A) (A) (A) (A) (A) (A)
                 (A) (A) (A) (A) (A) (A) (A) (A) (A) (A) (A) (A)
                 (A) (A) (A) (A) (A) (A) (A) (A) (A) (A) (A) (A)
                 (A) (A) (A) (A) (A) (A) (A) (A) (A) (A) (A) (A)
                 (A) (A) (A) (A) (A) (A) (A) (A) (A) (A) (A) (A)
                 (A) (A) (A) (A) (A) (A) (A) (A) (A) (A) (A) (A)
                 (A) (A) (A) (A) (A) (A) (A) (A) (A) (A) (A) (A)
                 (A) (A) (A) (A) (A) (A) (A) (A) (A) (A) (A) (A)
                 (A) (A) (A) (A) (A) (A) (A) (A) (A) (A) (A) (A)
                 (A) (A) (A) (A) (A) (A) (A) (A) (A) (A) (A) (A)
                 (A) (A) (A) (A) (A) (A) (A) (A) (A) (A) (A) (A)
                 (A) (A) (A) (A) (A) (A) (A) (A) (A) (A) (A) (A)
                 (A) (A) (A) (A) (A) (A) (A) (A) (A) (A) (A) (A)
                 (A) (A) (A) (A) (A) (A) (A) (A) (A) (A) (A) (A)
                 (A) (A) (A) (A) (A) (A) (A) (A) (A) (A) (A) (A)
                 (A) (A) (A) (A) (A) (A) (A) (A) (A) (A) (A) (A)
                 (A) (A) (A) (A) (A) (A) (A) (A) (A) (A) (A) (A)
                 (A) (A) (A) (A) (A) (A) (A) (A) (A) (A) (A) (A)
                 (A) (A) (A) (A) (A) (A) (A) (A) (A) (A) (A) (A)
                 (A) (A) (A) (A) (A) (A) (A) (A) (A) (A) (A) (A)
                 (A) (A) (A) (A) (A) (A) (A) (A) (A) (A) (A) (A)
                 (A) (A) (A) (A) (A) (A) (A) (A) (A) (A) (A) (A)
                 (A) (A) (A) (A) (A) (A) (A) (A) (A) (A) (A) (A)
                 (A) (A) (A) (A) (A) (A) (A) (A) (A) (A) (A) (A)
                 (A) (A) (A) (A) (A) (A) (A) (A) (A) (A) (A) (A)
                 (A) (A) (A) (A) (A) (A) (A) (A) (A) (A) (A) (A)
                 (A) (A) (A) (A) (A) (A) (A) (A) (A) (A) (A) (A)
                 (A) (A) (A) (A) (A) (A) (A) (A) (A) (A) (A) (A)
                 (A) (A) (A) (A) (A) (A) (A) (A) (A) (A) (A) (A)
                 (A) (A) (A) (A) (A) (A) (A) (A) (A) (A) (A) (A)
                 (A) (A) (A) (A) (A) (A) (A) (A) (A) (A) (A) (A)
                 (A) (A) (A) (A) (A) (A) (A) (A) (A) (A) (A) (A)
                 (A) (A) (A) (A) (A) (A) (A) (A) (A) (A) (A) (A)
                 (A) (A) (A) (A) (A) (A) (A) (A) (A) (A) (A) (A)
                 (A) (A) (A) (A) (A) (A) (A) (A) (A) (A) (A) (A)
                 (A) (A) (A) (A) (A) (A) (A) (A) (A) (A) (A) (A)
                 (A) (A) (A) (A) (A) (A) (A) (A) (A) (A) (A) (A)
                 (A) (A) (A) (A) (A) (A) (A) (A) (A) (A) (A) (A)
                 (A) (A) (A) (A) (A) (A) (A) (A) (A) (A) (A) (A)
                 (A) (A) (A) (A) (A) (A) (A) (A) (A) (A) (A) (A)
                 (A) (A) (A) (A) (A) (A) (A) (A) (A) (A) (A) (A)
                 (A) (A) (A) (A) (A) (A) (A) (A) (A) (A) (A) (A)
                 (A) (A) (A) (A) (A) (A) (A) (A) (A) (A) (A) (A)
                 (A) (A) (A) (A) (A) (A) (A) (A) (A) (A) (A) (A)
                 (A) (A) (A) (A) (A) (A) (A) (A) (A) (A) (A) (A)
                 (A) (A) (A) (A) (A) (A) (A) (A) (A) (A) (A) (A)
                 (A) (A) (A) (A) (A) (A) (A) (A) (A) (A) (A) (A)
                 (A) (A) (A) (A) (A) (A) (A) (A) (A) (A) (A) (A)
                 (A) (A) (A) (A) (A) (A) (A) (A) (A) (A) (A) (A)
                 (A) (A) (A) (A) (A) (A) (A) (A) (A) (A) (A) (A)
                 (A) (A) (A) (A) (A) (A) (A) (A) (A) (A) (A) (A)
                 (A) (A) (A) (A) (A) (A) (A) (A) (A) (A) (A) (A)
                 (A) (A) (A) (A) (A) (A) (A) (A) (A) (A) (A) (A)
                 (A) (A) (A) (A) (A) (A) (A) (A) (A) (A) (A) (A)
                 (A) (A) (A) (A) (A) (A) (A) (A) (A) (A) (A) (A)
                 (A) (A) (A) (A) (A) (A) (A) (A) (A) (A) (A) (A)
                 (A) (A) (A) (A) (A) (A) (A) (A) (A) (A) (A) (A)
                 (A) (A) (A) (A) (A) (A) (A) (A) (A) (A) (A) (A)
                 (A) (A) (A) (A) (A) (A) (A) (A) (A) (A) (A) (A)
                 (A) (A) (A) (A) (A) (A) (A) (A) (A) (A) (A) (A)
                 (A) (A) (A) (A) (A) (A) (A) (A) (A) (A) (A) (A)
                 (A) (A) (A) (A) (A) (A) (A) (A) (A) (A) (A) (A)
                 (A) (A) (A) (A) (A) (A) (A) (A) (A) (A) (A) (A)
                 (A) (A) (A) (A) (A) (A) (A) (A) (A) (A) (A) (A)
                 (A) (A) (A) (A) (A) (A) (A) (A) (A) (A) (A) (A)
                 (A) (A) (A) (A) (A) (A) (A) (A) (A) (A) (A) (A)
                 (A) (A) (A) (A) (A) (A) (A) (A) (A) (A) (A) (A)
                 (A) (A) (A) (A) (A) (A) (A) (A) (A) (A) (A) (A)
                 (A) (A) (A) (A) (A) (A) (A) (A) (A) (A) (A) (A)
                 (A) (A) (A) (A) (A) (A) (A) (A) (A) (A) (A) (A)
                 (A) (A) (A) (A) (A) (A) (A) (A) (A) (A) (A) (A)
                 (A) (A) (A) (A) (A) (A) (A) (A) (A) (A) (A) (A)
                 (A) (A) (A) (A) (A) (A) (A) (A) (A)
 The electronic state is 5-A.
 Alpha  occ. eigenvalues -- -256.40024 -89.03663 -30.18632 -26.01678 -26.01271
 Alpha  occ. eigenvalues --  -25.99886 -19.26425 -19.25119 -19.18928 -19.18531
 Alpha  occ. eigenvalues --  -14.44777 -14.41432 -14.38015 -14.37851 -14.37418
 Alpha  occ. eigenvalues --  -14.37077 -10.35659 -10.35479 -10.29013 -10.26587
 Alpha  occ. eigenvalues --  -10.25000 -10.24967 -10.24610 -10.24592 -10.24466
 Alpha  occ. eigenvalues --  -10.24451 -10.24392 -10.24336 -10.23894 -10.23432
 Alpha  occ. eigenvalues --  -10.23114 -10.22962 -10.22835 -10.22629 -10.22550
 Alpha  occ. eigenvalues --  -10.22286 -10.22048 -10.21822 -10.21725 -10.21667
 Alpha  occ. eigenvalues --  -10.21639 -10.21558 -10.21369 -10.21169 -10.21157
 Alpha  occ. eigenvalues --  -10.20940 -10.20794 -10.20772 -10.20555 -10.20499
 Alpha  occ. eigenvalues --  -10.20455 -10.20437 -10.20308 -10.20296 -10.20061
 Alpha  occ. eigenvalues --  -10.19571 -10.19449  -8.01498  -5.95148  -5.94865
 Alpha  occ. eigenvalues --   -5.94350  -3.54437  -2.31410  -2.30770  -2.27727
 Alpha  occ. eigenvalues --   -1.17083  -1.16196  -1.06028  -1.04011  -1.03225
 Alpha  occ. eigenvalues --   -0.98979  -0.98051  -0.97719  -0.96737  -0.91385
 Alpha  occ. eigenvalues --   -0.84165  -0.83917  -0.83429  -0.82962  -0.81994
 Alpha  occ. eigenvalues --   -0.81311  -0.80561  -0.80497  -0.80027  -0.78917
 Alpha  occ. eigenvalues --   -0.78405  -0.76683  -0.76395  -0.75457  -0.74398
 Alpha  occ. eigenvalues --   -0.73036  -0.72072  -0.71922  -0.71462  -0.70276
 Alpha  occ. eigenvalues --   -0.69245  -0.69188  -0.68572  -0.67314  -0.66682
 Alpha  occ. eigenvalues --   -0.65639  -0.65155  -0.64744  -0.64548  -0.62636
 Alpha  occ. eigenvalues --   -0.62174  -0.60667  -0.60224  -0.58684  -0.58567
 Alpha  occ. eigenvalues --   -0.56309  -0.55545  -0.55067  -0.54278  -0.53635
 Alpha  occ. eigenvalues --   -0.53331  -0.52595  -0.52264  -0.51735  -0.51236
 Alpha  occ. eigenvalues --   -0.50756  -0.50137  -0.49143  -0.48878  -0.48750
 Alpha  occ. eigenvalues --   -0.48309  -0.48013  -0.47803  -0.47625  -0.47368
 Alpha  occ. eigenvalues --   -0.46622  -0.45983  -0.45648  -0.45449  -0.44963
 Alpha  occ. eigenvalues --   -0.44747  -0.44632  -0.44362  -0.43898  -0.43827
 Alpha  occ. eigenvalues --   -0.43744  -0.43629  -0.43316  -0.43229  -0.43204
 Alpha  occ. eigenvalues --   -0.42714  -0.42603  -0.42368  -0.41825  -0.41445
 Alpha  occ. eigenvalues --   -0.41324  -0.41207  -0.41024  -0.40821  -0.40632
 Alpha  occ. eigenvalues --   -0.40616  -0.40318  -0.40019  -0.39907  -0.39322
 Alpha  occ. eigenvalues --   -0.39114  -0.39043  -0.38692  -0.38369  -0.38152
 Alpha  occ. eigenvalues --   -0.38071  -0.37717  -0.37599  -0.37252  -0.37095
 Alpha  occ. eigenvalues --   -0.36309  -0.36101  -0.35920  -0.35650  -0.35445
 Alpha  occ. eigenvalues --   -0.34921  -0.34772  -0.34585  -0.34313  -0.33969
 Alpha  occ. eigenvalues --   -0.33796  -0.33567  -0.33387  -0.32928  -0.32717
 Alpha  occ. eigenvalues --   -0.31796  -0.31301  -0.30360  -0.29665  -0.29260
 Alpha  occ. eigenvalues --   -0.28699  -0.28395  -0.28238  -0.28072  -0.27159
 Alpha  occ. eigenvalues --   -0.25319  -0.24803  -0.24393  -0.23098  -0.22841
 Alpha  occ. eigenvalues --   -0.22761  -0.20965  -0.20370  -0.19872  -0.17363
 Alpha  occ. eigenvalues --   -0.11863
 Alpha virt. eigenvalues --   -0.06638  -0.06113  -0.05068  -0.04016  -0.00619
 Alpha virt. eigenvalues --   -0.00456  -0.00097   0.01249   0.02673   0.03627
 Alpha virt. eigenvalues --    0.03864   0.04329   0.04394   0.05193   0.05393
 Alpha virt. eigenvalues --    0.05775   0.06233   0.06556   0.06771   0.07000
 Alpha virt. eigenvalues --    0.07296   0.07435   0.08009   0.08288   0.08498
 Alpha virt. eigenvalues --    0.08704   0.08887   0.09182   0.09323   0.09617
 Alpha virt. eigenvalues --    0.09856   0.10280   0.10357   0.10723   0.10830
 Alpha virt. eigenvalues --    0.11063   0.11493   0.11647   0.12004   0.12102
 Alpha virt. eigenvalues --    0.12509   0.12689   0.12990   0.13315   0.13357
 Alpha virt. eigenvalues --    0.13520   0.13856   0.13918   0.14169   0.14296
 Alpha virt. eigenvalues --    0.14414   0.14722   0.14899   0.14908   0.15283
 Alpha virt. eigenvalues --    0.15306   0.15445   0.15616   0.15740   0.15945
 Alpha virt. eigenvalues --    0.16125   0.16476   0.16713   0.16884   0.16995
 Alpha virt. eigenvalues --    0.17213   0.17394   0.17517   0.17952   0.18230
 Alpha virt. eigenvalues --    0.18393   0.18531   0.18751   0.18914   0.19077
 Alpha virt. eigenvalues --    0.19204   0.19300   0.19763   0.19839   0.20242
 Alpha virt. eigenvalues --    0.20406   0.20432   0.20510   0.20974   0.21058
 Alpha virt. eigenvalues --    0.21228   0.21536   0.21701   0.22243   0.22365
 Alpha virt. eigenvalues --    0.22560   0.22877   0.23000   0.23269   0.23482
 Alpha virt. eigenvalues --    0.23563   0.23681   0.23869   0.24111   0.24263
 Alpha virt. eigenvalues --    0.24674   0.24913   0.25062   0.25429   0.25618
 Alpha virt. eigenvalues --    0.25626   0.25739   0.25961   0.26042   0.26332
 Alpha virt. eigenvalues --    0.26598   0.26775   0.27103   0.27502   0.27687
 Alpha virt. eigenvalues --    0.27776   0.27874   0.27937   0.28326   0.28741
 Alpha virt. eigenvalues --    0.28985   0.29066   0.29399   0.29542   0.29723
 Alpha virt. eigenvalues --    0.29989   0.30242   0.30421   0.30507   0.30535
 Alpha virt. eigenvalues --    0.30885   0.31106   0.31346   0.31502   0.31807
 Alpha virt. eigenvalues --    0.32021   0.32423   0.32559   0.32806   0.32888
 Alpha virt. eigenvalues --    0.32968   0.33424   0.33511   0.33682   0.33893
 Alpha virt. eigenvalues --    0.34311   0.34451   0.34580   0.34803   0.35055
 Alpha virt. eigenvalues --    0.35411   0.35668   0.35850   0.36478   0.36583
 Alpha virt. eigenvalues --    0.36828   0.37003   0.37220   0.37235   0.37487
 Alpha virt. eigenvalues --    0.37526   0.37904   0.38171   0.38272   0.38430
 Alpha virt. eigenvalues --    0.38618   0.38709   0.38874   0.39045   0.39375
 Alpha virt. eigenvalues --    0.39743   0.39827   0.40184   0.40346   0.40386
 Alpha virt. eigenvalues --    0.40492   0.40797   0.40900   0.41179   0.41488
 Alpha virt. eigenvalues --    0.41650   0.41714   0.42110   0.42199   0.42351
 Alpha virt. eigenvalues --    0.42501   0.42685   0.42829   0.43004   0.43217
 Alpha virt. eigenvalues --    0.43346   0.43475   0.43551   0.43887   0.44182
 Alpha virt. eigenvalues --    0.44282   0.44349   0.44495   0.44770   0.44905
 Alpha virt. eigenvalues --    0.45060   0.45194   0.45476   0.45556   0.45688
 Alpha virt. eigenvalues --    0.45756   0.45951   0.46412   0.46528   0.46610
 Alpha virt. eigenvalues --    0.46775   0.46938   0.47163   0.47378   0.47422
 Alpha virt. eigenvalues --    0.47579   0.47686   0.47903   0.48268   0.48491
 Alpha virt. eigenvalues --    0.48578   0.48640   0.48796   0.49035   0.49287
 Alpha virt. eigenvalues --    0.49417   0.49667   0.49689   0.50021   0.50199
 Alpha virt. eigenvalues --    0.50297   0.50499   0.50525   0.50724   0.50955
 Alpha virt. eigenvalues --    0.51017   0.51210   0.51302   0.51624   0.51825
 Alpha virt. eigenvalues --    0.51991   0.52246   0.52368   0.52559   0.52596
 Alpha virt. eigenvalues --    0.52799   0.52984   0.53246   0.53433   0.53655
 Alpha virt. eigenvalues --    0.53938   0.54129   0.54315   0.54479   0.54706
 Alpha virt. eigenvalues --    0.54922   0.55129   0.55212   0.55510   0.55681
 Alpha virt. eigenvalues --    0.55810   0.56094   0.56326   0.56567   0.56884
 Alpha virt. eigenvalues --    0.57104   0.57245   0.57697   0.57922   0.58103
 Alpha virt. eigenvalues --    0.58194   0.58717   0.58856   0.58926   0.59302
 Alpha virt. eigenvalues --    0.59424   0.59573   0.59789   0.60081   0.60414
 Alpha virt. eigenvalues --    0.60521   0.60669   0.60925   0.61145   0.61443
 Alpha virt. eigenvalues --    0.61502   0.61949   0.62195   0.62368   0.62432
 Alpha virt. eigenvalues --    0.62705   0.63125   0.63289   0.63380   0.63678
 Alpha virt. eigenvalues --    0.63850   0.64116   0.64581   0.64638   0.65003
 Alpha virt. eigenvalues --    0.65193   0.65342   0.66022   0.66099   0.66472
 Alpha virt. eigenvalues --    0.66787   0.66935   0.67122   0.67509   0.67604
 Alpha virt. eigenvalues --    0.67989   0.68002   0.68419   0.68570   0.69167
 Alpha virt. eigenvalues --    0.69408   0.69613   0.69738   0.70028   0.70302
 Alpha virt. eigenvalues --    0.70481   0.70811   0.71000   0.71223   0.71445
 Alpha virt. eigenvalues --    0.71640   0.71945   0.72171   0.72654   0.72876
 Alpha virt. eigenvalues --    0.73201   0.73509   0.73590   0.73788   0.74416
 Alpha virt. eigenvalues --    0.74669   0.74852   0.75054   0.75099   0.75584
 Alpha virt. eigenvalues --    0.75832   0.76121   0.76277   0.76615   0.76893
 Alpha virt. eigenvalues --    0.77279   0.77877   0.78022   0.78238   0.78563
 Alpha virt. eigenvalues --    0.78877   0.78907   0.79106   0.79321   0.79791
 Alpha virt. eigenvalues --    0.80146   0.80242   0.80507   0.80669   0.81117
 Alpha virt. eigenvalues --    0.81498   0.81954   0.82057   0.82647   0.82721
 Alpha virt. eigenvalues --    0.82864   0.83029   0.83432   0.83727   0.84112
 Alpha virt. eigenvalues --    0.84258   0.84539   0.85036   0.85358   0.85543
 Alpha virt. eigenvalues --    0.85750   0.86140   0.86400   0.86911   0.86977
 Alpha virt. eigenvalues --    0.87395   0.87891   0.88050   0.88117   0.88359
 Alpha virt. eigenvalues --    0.88963   0.89052   0.89210   0.89584   0.89886
 Alpha virt. eigenvalues --    0.90351   0.90592   0.90596   0.90966   0.91198
 Alpha virt. eigenvalues --    0.91649   0.91741   0.92026   0.92298   0.92733
 Alpha virt. eigenvalues --    0.93110   0.93290   0.93395   0.93506   0.93822
 Alpha virt. eigenvalues --    0.94245   0.94673   0.94804   0.95087   0.95481
 Alpha virt. eigenvalues --    0.95897   0.96025   0.96326   0.96500   0.96754
 Alpha virt. eigenvalues --    0.96985   0.97188   0.97335   0.97677   0.98003
 Alpha virt. eigenvalues --    0.98573   0.98670   0.99209   0.99359   0.99496
 Alpha virt. eigenvalues --    0.99750   0.99920   1.00351   1.00544   1.00792
 Alpha virt. eigenvalues --    1.01289   1.01717   1.01966   1.02384   1.02539
 Alpha virt. eigenvalues --    1.02865   1.03066   1.03388   1.03500   1.03804
 Alpha virt. eigenvalues --    1.04013   1.04272   1.04424   1.04712   1.04887
 Alpha virt. eigenvalues --    1.05150   1.05442   1.06040   1.06344   1.06488
 Alpha virt. eigenvalues --    1.06634   1.06805   1.07285   1.07571   1.07760
 Alpha virt. eigenvalues --    1.07957   1.08275   1.08849   1.08998   1.09223
 Alpha virt. eigenvalues --    1.09467   1.09697   1.09898   1.10275   1.10657
 Alpha virt. eigenvalues --    1.10765   1.11563   1.11846   1.12082   1.12106
 Alpha virt. eigenvalues --    1.12575   1.12864   1.13242   1.13305   1.13640
 Alpha virt. eigenvalues --    1.14291   1.14415   1.14515   1.15313   1.15589
 Alpha virt. eigenvalues --    1.15951   1.16156   1.16617   1.16762   1.16850
 Alpha virt. eigenvalues --    1.17453   1.18207   1.18447   1.18660   1.19119
 Alpha virt. eigenvalues --    1.19506   1.19668   1.19959   1.20069   1.20296
 Alpha virt. eigenvalues --    1.20437   1.20902   1.21090   1.21236   1.21747
 Alpha virt. eigenvalues --    1.22167   1.22691   1.22949   1.23615   1.24015
 Alpha virt. eigenvalues --    1.24064   1.24829   1.25132   1.25323   1.25441
 Alpha virt. eigenvalues --    1.26006   1.26408   1.26584   1.26858   1.27124
 Alpha virt. eigenvalues --    1.27312   1.27656   1.28066   1.28390   1.28694
 Alpha virt. eigenvalues --    1.29219   1.29434   1.29687   1.30476   1.30762
 Alpha virt. eigenvalues --    1.30979   1.31423   1.31536   1.31788   1.32297
 Alpha virt. eigenvalues --    1.32575   1.32985   1.33133   1.33275   1.33884
 Alpha virt. eigenvalues --    1.34126   1.34574   1.35000   1.35288   1.36026
 Alpha virt. eigenvalues --    1.36482   1.36645   1.36872   1.37198   1.37868
 Alpha virt. eigenvalues --    1.38048   1.38338   1.39126   1.39272   1.39585
 Alpha virt. eigenvalues --    1.39866   1.40284   1.40514   1.40970   1.41241
 Alpha virt. eigenvalues --    1.41854   1.42075   1.42676   1.42789   1.43060
 Alpha virt. eigenvalues --    1.43399   1.43963   1.44268   1.44624   1.45025
 Alpha virt. eigenvalues --    1.45813   1.46069   1.46399   1.46744   1.46891
 Alpha virt. eigenvalues --    1.47213   1.47633   1.47792   1.48097   1.48655
 Alpha virt. eigenvalues --    1.49085   1.49209   1.49571   1.49889   1.50282
 Alpha virt. eigenvalues --    1.50775   1.51075   1.51395   1.51644   1.51924
 Alpha virt. eigenvalues --    1.52373   1.52664   1.52772   1.53286   1.53648
 Alpha virt. eigenvalues --    1.53837   1.53924   1.54485   1.54583   1.55092
 Alpha virt. eigenvalues --    1.55265   1.55660   1.56001   1.56171   1.56434
 Alpha virt. eigenvalues --    1.56578   1.56788   1.56888   1.57548   1.57751
 Alpha virt. eigenvalues --    1.58055   1.58284   1.58700   1.58905   1.59039
 Alpha virt. eigenvalues --    1.59202   1.59658   1.59722   1.60275   1.60391
 Alpha virt. eigenvalues --    1.60509   1.60900   1.61186   1.61318   1.61609
 Alpha virt. eigenvalues --    1.61861   1.61999   1.62221   1.62555   1.62581
 Alpha virt. eigenvalues --    1.62833   1.62904   1.63319   1.63404   1.63675
 Alpha virt. eigenvalues --    1.63886   1.64105   1.64440   1.64530   1.64760
 Alpha virt. eigenvalues --    1.64947   1.65373   1.65756   1.65901   1.65981
 Alpha virt. eigenvalues --    1.66496   1.66776   1.67118   1.67194   1.67709
 Alpha virt. eigenvalues --    1.68000   1.68206   1.68556   1.68731   1.69015
 Alpha virt. eigenvalues --    1.69284   1.69511   1.69826   1.69958   1.70493
 Alpha virt. eigenvalues --    1.70691   1.71042   1.71164   1.71393   1.72011
 Alpha virt. eigenvalues --    1.72389   1.72593   1.72779   1.73328   1.73536
 Alpha virt. eigenvalues --    1.74045   1.74110   1.74404   1.75045   1.75302
 Alpha virt. eigenvalues --    1.75494   1.75680   1.76054   1.76391   1.76607
 Alpha virt. eigenvalues --    1.76834   1.77231   1.77244   1.77384   1.77868
 Alpha virt. eigenvalues --    1.78169   1.79060   1.79475   1.79841   1.79880
 Alpha virt. eigenvalues --    1.80495   1.80690   1.80940   1.81243   1.81750
 Alpha virt. eigenvalues --    1.81937   1.82499   1.82870   1.83179   1.83543
 Alpha virt. eigenvalues --    1.83853   1.83979   1.84620   1.84686   1.84988
 Alpha virt. eigenvalues --    1.85451   1.85523   1.85769   1.86055   1.86129
 Alpha virt. eigenvalues --    1.86463   1.86747   1.87622   1.88072   1.88206
 Alpha virt. eigenvalues --    1.88576   1.88806   1.89068   1.89365   1.89747
 Alpha virt. eigenvalues --    1.90362   1.90411   1.90649   1.90971   1.91514
 Alpha virt. eigenvalues --    1.91841   1.91955   1.91984   1.92749   1.93214
 Alpha virt. eigenvalues --    1.93579   1.93746   1.93910   1.94727   1.94966
 Alpha virt. eigenvalues --    1.95696   1.95898   1.96280   1.96550   1.96679
 Alpha virt. eigenvalues --    1.96864   1.97410   1.97449   1.97790   1.98213
 Alpha virt. eigenvalues --    1.98540   1.98718   1.98946   1.99314   1.99831
 Alpha virt. eigenvalues --    2.00485   2.00738   2.01358   2.01756   2.02021
 Alpha virt. eigenvalues --    2.02368   2.02415   2.02872   2.03162   2.03696
 Alpha virt. eigenvalues --    2.04177   2.04243   2.04451   2.04711   2.04825
 Alpha virt. eigenvalues --    2.05101   2.05595   2.05897   2.06133   2.06415
 Alpha virt. eigenvalues --    2.06728   2.07047   2.07486   2.07581   2.08057
 Alpha virt. eigenvalues --    2.08231   2.08671   2.08931   2.09451   2.10090
 Alpha virt. eigenvalues --    2.10125   2.10369   2.10565   2.11014   2.11436
 Alpha virt. eigenvalues --    2.11598   2.11898   2.12644   2.12849   2.13051
 Alpha virt. eigenvalues --    2.13546   2.13704   2.14118   2.14407   2.14970
 Alpha virt. eigenvalues --    2.15108   2.15563   2.15847   2.15997   2.16384
 Alpha virt. eigenvalues --    2.16625   2.16895   2.17575   2.17713   2.17864
 Alpha virt. eigenvalues --    2.18498   2.18600   2.19223   2.19712   2.19959
 Alpha virt. eigenvalues --    2.20436   2.21000   2.21157   2.21459   2.22191
 Alpha virt. eigenvalues --    2.22417   2.22635   2.22991   2.23234   2.23459
 Alpha virt. eigenvalues --    2.23944   2.24100   2.24746   2.24872   2.25478
 Alpha virt. eigenvalues --    2.25866   2.26044   2.26223   2.26672   2.27080
 Alpha virt. eigenvalues --    2.27696   2.28114   2.28636   2.28844   2.28998
 Alpha virt. eigenvalues --    2.29747   2.29955   2.30292   2.30483   2.30773
 Alpha virt. eigenvalues --    2.31274   2.31554   2.31837   2.32358   2.32723
 Alpha virt. eigenvalues --    2.32824   2.33411   2.33672   2.34110   2.34475
 Alpha virt. eigenvalues --    2.34549   2.35161   2.35407   2.36273   2.36362
 Alpha virt. eigenvalues --    2.36565   2.37028   2.37306   2.37774   2.37934
 Alpha virt. eigenvalues --    2.38481   2.38735   2.38823   2.39191   2.39424
 Alpha virt. eigenvalues --    2.39938   2.40028   2.40658   2.40953   2.41237
 Alpha virt. eigenvalues --    2.41649   2.42409   2.42735   2.43046   2.43194
 Alpha virt. eigenvalues --    2.43747   2.44011   2.44255   2.44481   2.45364
 Alpha virt. eigenvalues --    2.45729   2.46091   2.46549   2.46773   2.46908
 Alpha virt. eigenvalues --    2.47253   2.47623   2.47861   2.48498   2.48873
 Alpha virt. eigenvalues --    2.49057   2.49374   2.49667   2.49863   2.50357
 Alpha virt. eigenvalues --    2.51090   2.51395   2.51612   2.51682   2.52036
 Alpha virt. eigenvalues --    2.52768   2.52917   2.53198   2.53554   2.54321
 Alpha virt. eigenvalues --    2.54346   2.54668   2.55176   2.55370   2.55733
 Alpha virt. eigenvalues --    2.55806   2.56583   2.56647   2.57034   2.57634
 Alpha virt. eigenvalues --    2.58028   2.58219   2.58361   2.58529   2.59319
 Alpha virt. eigenvalues --    2.59451   2.59604   2.59861   2.60172   2.60444
 Alpha virt. eigenvalues --    2.60648   2.60816   2.60984   2.61109   2.61347
 Alpha virt. eigenvalues --    2.61690   2.62306   2.62366   2.62678   2.62864
 Alpha virt. eigenvalues --    2.63289   2.63362   2.63558   2.64129   2.64464
 Alpha virt. eigenvalues --    2.64938   2.65177   2.65317   2.65665   2.65866
 Alpha virt. eigenvalues --    2.65998   2.66469   2.66762   2.67160   2.67446
 Alpha virt. eigenvalues --    2.67746   2.68202   2.68744   2.69001   2.69249
 Alpha virt. eigenvalues --    2.69329   2.69684   2.69954   2.70336   2.70704
 Alpha virt. eigenvalues --    2.71144   2.71174   2.71685   2.71970   2.72175
 Alpha virt. eigenvalues --    2.72354   2.72745   2.72989   2.73457   2.73728
 Alpha virt. eigenvalues --    2.73968   2.74182   2.74704   2.74772   2.74914
 Alpha virt. eigenvalues --    2.75564   2.75828   2.75965   2.76471   2.76649
 Alpha virt. eigenvalues --    2.76783   2.76881   2.77397   2.77880   2.78251
 Alpha virt. eigenvalues --    2.78377   2.78721   2.79021   2.79831   2.80169
 Alpha virt. eigenvalues --    2.80241   2.80711   2.81259   2.81519   2.81673
 Alpha virt. eigenvalues --    2.82153   2.82719   2.82939   2.83004   2.83534
 Alpha virt. eigenvalues --    2.83719   2.84162   2.84723   2.85102   2.85191
 Alpha virt. eigenvalues --    2.86261   2.86347   2.86617   2.86844   2.87293
 Alpha virt. eigenvalues --    2.87453   2.87922   2.88280   2.88686   2.89070
 Alpha virt. eigenvalues --    2.89283   2.89434   2.89765   2.90101   2.90417
 Alpha virt. eigenvalues --    2.90656   2.91200   2.91998   2.92192   2.92399
 Alpha virt. eigenvalues --    2.92832   2.93243   2.93675   2.93879   2.93980
 Alpha virt. eigenvalues --    2.94511   2.94724   2.95185   2.95550   2.95766
 Alpha virt. eigenvalues --    2.96280   2.96657   2.96910   2.97306   2.97423
 Alpha virt. eigenvalues --    2.97709   2.98282   2.98303   2.98512   2.98648
 Alpha virt. eigenvalues --    2.98930   2.99142   2.99375   2.99626   3.00076
 Alpha virt. eigenvalues --    3.00407   3.00835   3.01088   3.01155   3.01550
 Alpha virt. eigenvalues --    3.02022   3.02182   3.02378   3.02440   3.02664
 Alpha virt. eigenvalues --    3.03551   3.03661   3.03756   3.04320   3.04540
 Alpha virt. eigenvalues --    3.04792   3.04953   3.05408   3.05731   3.05953
 Alpha virt. eigenvalues --    3.06243   3.06590   3.06860   3.07061   3.07581
 Alpha virt. eigenvalues --    3.07845   3.08145   3.08462   3.08762   3.08897
 Alpha virt. eigenvalues --    3.09017   3.09191   3.09712   3.10076   3.10308
 Alpha virt. eigenvalues --    3.10662   3.10945   3.11037   3.11220   3.11728
 Alpha virt. eigenvalues --    3.12022   3.12064   3.12429   3.12576   3.13110
 Alpha virt. eigenvalues --    3.13345   3.13525   3.13906   3.14066   3.14308
 Alpha virt. eigenvalues --    3.14466   3.14658   3.14918   3.15010   3.15240
 Alpha virt. eigenvalues --    3.15807   3.15899   3.16301   3.16487   3.16873
 Alpha virt. eigenvalues --    3.17296   3.17514   3.17672   3.18060   3.18448
 Alpha virt. eigenvalues --    3.18696   3.19043   3.19114   3.19258   3.19572
 Alpha virt. eigenvalues --    3.19621   3.20046   3.20326   3.20644   3.20987
 Alpha virt. eigenvalues --    3.21167   3.21498   3.21789   3.22137   3.22353
 Alpha virt. eigenvalues --    3.22701   3.22875   3.23014   3.23051   3.23218
 Alpha virt. eigenvalues --    3.23448   3.23732   3.24183   3.24394   3.24674
 Alpha virt. eigenvalues --    3.25039   3.25221   3.25515   3.25788   3.25953
 Alpha virt. eigenvalues --    3.26271   3.26704   3.26886   3.27042   3.27270
 Alpha virt. eigenvalues --    3.27607   3.27867   3.28255   3.28486   3.28789
 Alpha virt. eigenvalues --    3.29004   3.29299   3.29611   3.29736   3.30185
 Alpha virt. eigenvalues --    3.30295   3.30464   3.30992   3.31117   3.31390
 Alpha virt. eigenvalues --    3.31881   3.31987   3.32392   3.32540   3.32649
 Alpha virt. eigenvalues --    3.32922   3.33470   3.33699   3.33949   3.33970
 Alpha virt. eigenvalues --    3.34160   3.34721   3.35076   3.35175   3.35247
 Alpha virt. eigenvalues --    3.35418   3.35672   3.35885   3.36228   3.36350
 Alpha virt. eigenvalues --    3.36615   3.36911   3.37216   3.37527   3.37847
 Alpha virt. eigenvalues --    3.38078   3.38324   3.38604   3.38860   3.38955
 Alpha virt. eigenvalues --    3.39327   3.39431   3.39930   3.40480   3.40527
 Alpha virt. eigenvalues --    3.40610   3.41148   3.41311   3.41573   3.41866
 Alpha virt. eigenvalues --    3.42064   3.42131   3.42551   3.42670   3.42893
 Alpha virt. eigenvalues --    3.43203   3.43389   3.43846   3.43979   3.44537
 Alpha virt. eigenvalues --    3.44686   3.44881   3.44898   3.45390   3.45770
 Alpha virt. eigenvalues --    3.45868   3.46207   3.46420   3.46489   3.46959
 Alpha virt. eigenvalues --    3.47270   3.47580   3.47979   3.48114   3.48720
 Alpha virt. eigenvalues --    3.49144   3.49313   3.49541   3.50253   3.50397
 Alpha virt. eigenvalues --    3.50783   3.50961   3.51181   3.51263   3.51493
 Alpha virt. eigenvalues --    3.51983   3.52193   3.52611   3.52854   3.53038
 Alpha virt. eigenvalues --    3.53265   3.53418   3.53497   3.54408   3.54580
 Alpha virt. eigenvalues --    3.54916   3.55063   3.55225   3.55833   3.55995
 Alpha virt. eigenvalues --    3.56833   3.57112   3.57197   3.57320   3.57572
 Alpha virt. eigenvalues --    3.57762   3.58429   3.58636   3.59130   3.59342
 Alpha virt. eigenvalues --    3.59594   3.59871   3.60248   3.60549   3.61334
 Alpha virt. eigenvalues --    3.61564   3.61798   3.62433   3.62707   3.62956
 Alpha virt. eigenvalues --    3.63173   3.63784   3.64069   3.64168   3.64669
 Alpha virt. eigenvalues --    3.65360   3.65723   3.65922   3.66564   3.66726
 Alpha virt. eigenvalues --    3.66925   3.67558   3.67995   3.68291   3.68554
 Alpha virt. eigenvalues --    3.68700   3.68904   3.69160   3.69599   3.70009
 Alpha virt. eigenvalues --    3.70511   3.70839   3.71338   3.71527   3.71708
 Alpha virt. eigenvalues --    3.71871   3.72299   3.72584   3.73270   3.73712
 Alpha virt. eigenvalues --    3.73886   3.74299   3.74856   3.75232   3.75919
 Alpha virt. eigenvalues --    3.75976   3.76142   3.76516   3.77045   3.77182
 Alpha virt. eigenvalues --    3.77953   3.78568   3.79020   3.79424   3.79673
 Alpha virt. eigenvalues --    3.79913   3.80964   3.80991   3.81435   3.81766
 Alpha virt. eigenvalues --    3.82071   3.82443   3.83363   3.83921   3.84202
 Alpha virt. eigenvalues --    3.84455   3.84652   3.85330   3.85878   3.86263
 Alpha virt. eigenvalues --    3.87124   3.87386   3.87895   3.88094   3.88398
 Alpha virt. eigenvalues --    3.89233   3.89449   3.89772   3.90598   3.90844
 Alpha virt. eigenvalues --    3.91188   3.91775   3.92003   3.92307   3.93073
 Alpha virt. eigenvalues --    3.93457   3.93865   3.94484   3.94848   3.94948
 Alpha virt. eigenvalues --    3.95751   3.95832   3.96263   3.97140   3.97483
 Alpha virt. eigenvalues --    3.97972   3.98281   3.98704   3.99340   3.99727
 Alpha virt. eigenvalues --    4.00174   4.00335   4.00790   4.01167   4.01800
 Alpha virt. eigenvalues --    4.02318   4.03436   4.03622   4.04186   4.04505
 Alpha virt. eigenvalues --    4.04992   4.05122   4.05816   4.06525   4.06746
 Alpha virt. eigenvalues --    4.06947   4.07363   4.08325   4.08649   4.08999
 Alpha virt. eigenvalues --    4.09468   4.09726   4.10008   4.10872   4.11331
 Alpha virt. eigenvalues --    4.11997   4.12515   4.12800   4.12915   4.13676
 Alpha virt. eigenvalues --    4.13821   4.14335   4.15058   4.15348   4.15963
 Alpha virt. eigenvalues --    4.16498   4.16537   4.17568   4.17929   4.18395
 Alpha virt. eigenvalues --    4.19247   4.19513   4.19949   4.19961   4.20984
 Alpha virt. eigenvalues --    4.21150   4.21193   4.22945   4.23166   4.24130
 Alpha virt. eigenvalues --    4.24313   4.24808   4.25261   4.25941   4.26095
 Alpha virt. eigenvalues --    4.26713   4.27887   4.28152   4.28285   4.28660
 Alpha virt. eigenvalues --    4.29236   4.29686   4.30047   4.30244   4.30601
 Alpha virt. eigenvalues --    4.31007   4.31283   4.32099   4.32387   4.32941
 Alpha virt. eigenvalues --    4.33177   4.33447   4.34204   4.34840   4.35743
 Alpha virt. eigenvalues --    4.35892   4.36646   4.37029   4.37200   4.37502
 Alpha virt. eigenvalues --    4.37571   4.38705   4.39373   4.39541   4.40563
 Alpha virt. eigenvalues --    4.40896   4.41160   4.41610   4.41824   4.42307
 Alpha virt. eigenvalues --    4.42769   4.43496   4.44365   4.44761   4.44905
 Alpha virt. eigenvalues --    4.45241   4.45675   4.46062   4.46611   4.47513
 Alpha virt. eigenvalues --    4.47996   4.48652   4.49171   4.50078   4.50552
 Alpha virt. eigenvalues --    4.51398   4.51612   4.51925   4.53392   4.54297
 Alpha virt. eigenvalues --    4.54660   4.55252   4.55770   4.56227   4.56427
 Alpha virt. eigenvalues --    4.57187   4.57841   4.58042   4.59245   4.59622
 Alpha virt. eigenvalues --    4.60384   4.61129   4.61275   4.61771   4.62811
 Alpha virt. eigenvalues --    4.63031   4.63660   4.64678   4.65317   4.66084
 Alpha virt. eigenvalues --    4.66792   4.66984   4.67538   4.69049   4.69821
 Alpha virt. eigenvalues --    4.70644   4.71319   4.71863   4.72254   4.72940
 Alpha virt. eigenvalues --    4.73158   4.74339   4.74855   4.75381   4.76844
 Alpha virt. eigenvalues --    4.77259   4.78244   4.78705   4.79716   4.79784
 Alpha virt. eigenvalues --    4.80872   4.81422   4.81739   4.82675   4.83358
 Alpha virt. eigenvalues --    4.84810   4.85336   4.85803   4.86292   4.86350
 Alpha virt. eigenvalues --    4.87669   4.88266   4.88717   4.89272   4.90178
 Alpha virt. eigenvalues --    4.91040   4.91638   4.91740   4.93014   4.93405
 Alpha virt. eigenvalues --    4.93930   4.95171   4.95367   4.95531   4.96661
 Alpha virt. eigenvalues --    4.97080   4.98382   4.99151   5.00439   5.00733
 Alpha virt. eigenvalues --    5.01511   5.01990   5.02613   5.03472   5.03683
 Alpha virt. eigenvalues --    5.04549   5.06185   5.06508   5.06807   5.07794
 Alpha virt. eigenvalues --    5.08043   5.08774   5.10072   5.10973   5.12459
 Alpha virt. eigenvalues --    5.13642   5.14915   5.16137   5.16907   5.19217
 Alpha virt. eigenvalues --    5.19305   5.19744   5.20420   5.20938   5.21206
 Alpha virt. eigenvalues --    5.21366   5.22749   5.23056   5.23736   5.24348
 Alpha virt. eigenvalues --    5.25404   5.25693   5.26686   5.27236   5.27622
 Alpha virt. eigenvalues --    5.28592   5.29005   5.29888   5.30482   5.31517
 Alpha virt. eigenvalues --    5.31641   5.34475   5.35640   5.37419   5.38450
 Alpha virt. eigenvalues --    5.39672   5.40850   5.41299   5.42204   5.43196
 Alpha virt. eigenvalues --    5.44256   5.44563   5.45316   5.46391   5.46652
 Alpha virt. eigenvalues --    5.47835   5.48392   5.49266   5.52383   5.52724
 Alpha virt. eigenvalues --    5.53953   5.55854   5.57199   5.58132   5.58332
 Alpha virt. eigenvalues --    5.58855   5.60026   5.60696   5.60992   5.61579
 Alpha virt. eigenvalues --    5.63952   5.65524   5.65875   5.67566   5.68092
 Alpha virt. eigenvalues --    5.69939   5.70880   5.71602   5.75049   5.76108
 Alpha virt. eigenvalues --    5.77599   5.78596   5.80573   5.80783   5.82046
 Alpha virt. eigenvalues --    5.85927   5.89230   5.91047   5.91903   5.96237
 Alpha virt. eigenvalues --    5.97269   6.00538   6.01264   6.02138   6.03301
 Alpha virt. eigenvalues --    6.04595   6.06080   6.07844   6.08678   6.10181
 Alpha virt. eigenvalues --    6.11058   6.11974   6.12393   6.13626   6.16668
 Alpha virt. eigenvalues --    6.17057   6.17979   6.23823   6.25489   6.30537
 Alpha virt. eigenvalues --    6.32880   6.36544   6.36765   6.38189   6.40027
 Alpha virt. eigenvalues --    6.43543   6.44571   6.45627   6.47886   6.48096
 Alpha virt. eigenvalues --    6.48283   6.50215   6.66385   6.67379   6.74267
 Alpha virt. eigenvalues --    6.75807   6.85620   6.88158   6.94269   6.94513
 Alpha virt. eigenvalues --    7.04382   7.06957   7.12452   7.13129   7.21051
 Alpha virt. eigenvalues --    7.21436   7.26299   7.28410   9.21974   9.50781
 Alpha virt. eigenvalues --    9.67263  20.21474  22.22392  22.25915  22.40661
 Alpha virt. eigenvalues --   22.44065  22.44849  22.51768  22.54413  22.55553
 Alpha virt. eigenvalues --   22.56228  22.58600  22.60999  22.62012  22.62348
 Alpha virt. eigenvalues --   22.66330  22.72742  22.77154  22.81406  22.93737
 Alpha virt. eigenvalues --   22.94644  22.97150  22.99198  23.03220  23.04787
 Alpha virt. eigenvalues --   23.08918  23.14359  23.25811  23.27423  23.32588
 Alpha virt. eigenvalues --   23.33215  23.36242  23.43095  23.46711  23.49987
 Alpha virt. eigenvalues --   23.55102  23.56894  23.61481  23.67426  23.68407
 Alpha virt. eigenvalues --   23.77725  23.81409  23.90485  32.45949  32.73937
 Alpha virt. eigenvalues --   33.03899  33.09129  33.12013  33.19415  43.95839
 Alpha virt. eigenvalues --   43.98150  44.00095  44.09340
  Beta  occ. eigenvalues -- -256.39989 -89.03677 -30.16313 -25.99384 -25.99135
  Beta  occ. eigenvalues --  -25.98479 -19.26425 -19.25119 -19.18929 -19.18531
  Beta  occ. eigenvalues --  -14.44780 -14.41515 -14.37933 -14.37804 -14.37502
  Beta  occ. eigenvalues --  -14.37041 -10.35659 -10.35479 -10.29009 -10.26589
  Beta  occ. eigenvalues --  -10.25128 -10.25011 -10.24665 -10.24605 -10.24464
  Beta  occ. eigenvalues --  -10.24381 -10.24346 -10.23895 -10.23367 -10.23310
  Beta  occ. eigenvalues --  -10.22830 -10.22795 -10.22729 -10.22617 -10.22550
  Beta  occ. eigenvalues --  -10.22051 -10.21822 -10.21790 -10.21642 -10.21636
  Beta  occ. eigenvalues --  -10.21557 -10.21150 -10.21079 -10.20945 -10.20885
  Beta  occ. eigenvalues --  -10.20706 -10.20639 -10.20607 -10.20501 -10.20435
  Beta  occ. eigenvalues --  -10.20317 -10.20303 -10.20293 -10.20214 -10.20060
  Beta  occ. eigenvalues --  -10.19577 -10.19446  -8.01515  -5.95158  -5.94896
  Beta  occ. eigenvalues --   -5.94362  -3.48733  -2.24271  -2.23787  -2.23421
  Beta  occ. eigenvalues --   -1.17084  -1.16196  -1.06054  -1.04012  -1.03225
  Beta  occ. eigenvalues --   -0.98829  -0.97819  -0.97633  -0.96653  -0.91448
  Beta  occ. eigenvalues --   -0.84097  -0.83904  -0.83355  -0.82839  -0.81119
  Beta  occ. eigenvalues --   -0.80779  -0.80500  -0.80250  -0.79954  -0.78789
  Beta  occ. eigenvalues --   -0.78332  -0.76689  -0.75174  -0.75110  -0.73001
  Beta  occ. eigenvalues --   -0.72696  -0.71992  -0.71852  -0.70206  -0.69484
  Beta  occ. eigenvalues --   -0.69230  -0.69085  -0.68453  -0.67331  -0.66662
  Beta  occ. eigenvalues --   -0.65373  -0.65061  -0.64778  -0.64384  -0.62178
  Beta  occ. eigenvalues --   -0.60675  -0.60022  -0.59304  -0.58482  -0.58359
  Beta  occ. eigenvalues --   -0.56283  -0.55407  -0.54695  -0.54020  -0.53567
  Beta  occ. eigenvalues --   -0.53251  -0.52417  -0.52103  -0.51631  -0.51106
  Beta  occ. eigenvalues --   -0.50730  -0.50109  -0.49107  -0.48667  -0.48563
  Beta  occ. eigenvalues --   -0.48289  -0.48025  -0.47677  -0.47530  -0.47297
  Beta  occ. eigenvalues --   -0.46510  -0.45933  -0.45287  -0.44882  -0.44764
  Beta  occ. eigenvalues --   -0.44543  -0.44223  -0.43977  -0.43689  -0.43652
  Beta  occ. eigenvalues --   -0.43469  -0.43253  -0.43129  -0.42967  -0.42900
  Beta  occ. eigenvalues --   -0.42565  -0.42303  -0.41999  -0.41679  -0.41305
  Beta  occ. eigenvalues --   -0.41184  -0.41021  -0.40677  -0.40561  -0.40439
  Beta  occ. eigenvalues --   -0.40249  -0.40003  -0.39773  -0.39630  -0.39140
  Beta  occ. eigenvalues --   -0.38898  -0.38843  -0.38455  -0.38169  -0.38052
  Beta  occ. eigenvalues --   -0.37751  -0.37441  -0.37174  -0.36977  -0.36781
  Beta  occ. eigenvalues --   -0.36179  -0.35970  -0.35890  -0.35536  -0.35203
  Beta  occ. eigenvalues --   -0.34747  -0.34605  -0.34217  -0.33961  -0.33654
  Beta  occ. eigenvalues --   -0.33383  -0.32825  -0.32648  -0.32312  -0.31602
  Beta  occ. eigenvalues --   -0.30403  -0.30179  -0.28453  -0.28289  -0.28257
  Beta  occ. eigenvalues --   -0.28047  -0.27358  -0.27099  -0.25520  -0.25016
  Beta  occ. eigenvalues --   -0.24547  -0.23596  -0.22813  -0.22160  -0.19080
  Beta  occ. eigenvalues --   -0.18610  -0.16685
  Beta virt. eigenvalues --   -0.09061  -0.07120  -0.06021  -0.05206  -0.03394
  Beta virt. eigenvalues --   -0.03009  -0.02646  -0.01091  -0.00577  -0.00385
  Beta virt. eigenvalues --    0.00949   0.01346   0.02712   0.03724   0.04084
  Beta virt. eigenvalues --    0.04389   0.04535   0.05275   0.05766   0.06007
  Beta virt. eigenvalues --    0.06405   0.06735   0.06927   0.07074   0.07373
  Beta virt. eigenvalues --    0.07925   0.08146   0.08391   0.08696   0.08992
  Beta virt. eigenvalues --    0.09182   0.09318   0.09808   0.09936   0.10238
  Beta virt. eigenvalues --    0.10536   0.10605   0.10834   0.11020   0.11275
  Beta virt. eigenvalues --    0.11581   0.12059   0.12218   0.12261   0.12774
  Beta virt. eigenvalues --    0.12862   0.13297   0.13468   0.13530   0.13664
  Beta virt. eigenvalues --    0.13906   0.14008   0.14295   0.14626   0.14825
  Beta virt. eigenvalues --    0.14837   0.14961   0.15167   0.15405   0.15463
  Beta virt. eigenvalues --    0.15612   0.15750   0.16022   0.16123   0.16328
  Beta virt. eigenvalues --    0.16673   0.16867   0.17057   0.17171   0.17486
  Beta virt. eigenvalues --    0.17626   0.17712   0.18159   0.18299   0.18603
  Beta virt. eigenvalues --    0.18764   0.18898   0.19035   0.19176   0.19272
  Beta virt. eigenvalues --    0.19387   0.19866   0.19919   0.20341   0.20518
  Beta virt. eigenvalues --    0.20630   0.20800   0.21175   0.21265   0.21662
  Beta virt. eigenvalues --    0.21798   0.21998   0.22453   0.22609   0.22927
  Beta virt. eigenvalues --    0.23040   0.23269   0.23600   0.23661   0.23764
  Beta virt. eigenvalues --    0.23860   0.24009   0.24182   0.24472   0.24803
  Beta virt. eigenvalues --    0.25011   0.25324   0.25587   0.25718   0.25963
  Beta virt. eigenvalues --    0.26374   0.26425   0.26605   0.26815   0.27021
  Beta virt. eigenvalues --    0.27069   0.27529   0.27765   0.27959   0.28040
  Beta virt. eigenvalues --    0.28477   0.28868   0.29079   0.29232   0.29492
  Beta virt. eigenvalues --    0.29730   0.29986   0.30092   0.30205   0.30276
  Beta virt. eigenvalues --    0.30623   0.30716   0.30772   0.30947   0.31237
  Beta virt. eigenvalues --    0.31406   0.31466   0.31878   0.32290   0.32429
  Beta virt. eigenvalues --    0.32768   0.32845   0.33032   0.33184   0.33484
  Beta virt. eigenvalues --    0.33571   0.33742   0.34021   0.34118   0.34574
  Beta virt. eigenvalues --    0.34838   0.35046   0.35186   0.35401   0.35799
  Beta virt. eigenvalues --    0.35848   0.36203   0.36666   0.36748   0.37125
  Beta virt. eigenvalues --    0.37331   0.37560   0.37663   0.37708   0.37916
  Beta virt. eigenvalues --    0.38203   0.38401   0.38508   0.38597   0.38762
  Beta virt. eigenvalues --    0.38911   0.39229   0.39329   0.39657   0.39930
  Beta virt. eigenvalues --    0.40069   0.40472   0.40574   0.40679   0.40810
  Beta virt. eigenvalues --    0.40982   0.41181   0.41578   0.41708   0.41840
  Beta virt. eigenvalues --    0.41918   0.42320   0.42473   0.42630   0.42920
  Beta virt. eigenvalues --    0.42947   0.43040   0.43124   0.43418   0.43526
  Beta virt. eigenvalues --    0.43628   0.43833   0.44085   0.44382   0.44546
  Beta virt. eigenvalues --    0.44718   0.44761   0.44883   0.45104   0.45265
  Beta virt. eigenvalues --    0.45476   0.45574   0.45793   0.45918   0.45975
  Beta virt. eigenvalues --    0.46170   0.46589   0.46600   0.46865   0.46910
  Beta virt. eigenvalues --    0.47054   0.47248   0.47482   0.47640   0.47752
  Beta virt. eigenvalues --    0.47993   0.48209   0.48454   0.48721   0.48810
  Beta virt. eigenvalues --    0.48858   0.49056   0.49311   0.49545   0.49725
  Beta virt. eigenvalues --    0.49789   0.50004   0.50300   0.50383   0.50598
  Beta virt. eigenvalues --    0.50627   0.50797   0.51030   0.51055   0.51152
  Beta virt. eigenvalues --    0.51337   0.51620   0.51751   0.52056   0.52115
  Beta virt. eigenvalues --    0.52456   0.52620   0.52695   0.52754   0.52964
  Beta virt. eigenvalues --    0.53157   0.53385   0.53654   0.53762   0.54087
  Beta virt. eigenvalues --    0.54276   0.54446   0.54580   0.54866   0.55039
  Beta virt. eigenvalues --    0.55243   0.55315   0.55692   0.55910   0.55992
  Beta virt. eigenvalues --    0.56224   0.56525   0.56753   0.57078   0.57240
  Beta virt. eigenvalues --    0.57475   0.58000   0.58018   0.58252   0.58356
  Beta virt. eigenvalues --    0.58994   0.59032   0.59114   0.59479   0.59543
  Beta virt. eigenvalues --    0.59814   0.59931   0.60252   0.60540   0.60683
  Beta virt. eigenvalues --    0.60852   0.61089   0.61295   0.61668   0.61787
  Beta virt. eigenvalues --    0.62137   0.62336   0.62552   0.62659   0.62900
  Beta virt. eigenvalues --    0.63277   0.63461   0.63594   0.63836   0.63981
  Beta virt. eigenvalues --    0.64217   0.64684   0.64839   0.65187   0.65363
  Beta virt. eigenvalues --    0.65532   0.66197   0.66243   0.66630   0.67053
  Beta virt. eigenvalues --    0.67132   0.67262   0.67705   0.67886   0.68117
  Beta virt. eigenvalues --    0.68231   0.68614   0.68782   0.69291   0.69582
  Beta virt. eigenvalues --    0.69813   0.69889   0.70137   0.70463   0.70627
  Beta virt. eigenvalues --    0.71028   0.71213   0.71349   0.71584   0.71804
  Beta virt. eigenvalues --    0.72163   0.72400   0.72822   0.73015   0.73389
  Beta virt. eigenvalues --    0.73701   0.73749   0.73995   0.74669   0.74987
  Beta virt. eigenvalues --    0.75030   0.75208   0.75328   0.75771   0.75999
  Beta virt. eigenvalues --    0.76379   0.76430   0.76753   0.77045   0.77443
  Beta virt. eigenvalues --    0.78028   0.78351   0.78576   0.78756   0.79007
  Beta virt. eigenvalues --    0.79201   0.79332   0.79479   0.80034   0.80407
  Beta virt. eigenvalues --    0.80495   0.80658   0.80974   0.81406   0.81734
  Beta virt. eigenvalues --    0.82143   0.82418   0.82791   0.82854   0.83028
  Beta virt. eigenvalues --    0.83185   0.83533   0.83965   0.84380   0.84467
[...]
              Bcc     0.0014     0.184     0.066     0.061  0.9939  0.0918  0.0604
 
              Baa    -0.0006     0.040     0.014     0.013  0.0424 -0.0528  0.9977
    35 O(17)  Bbb    -0.0005     0.033     0.012     0.011 -0.0802  0.9952  0.0561
              Bcc     0.0010    -0.073    -0.026    -0.024  0.9959  0.0824 -0.0379
 
              Baa    -0.0008     0.056     0.020     0.019  0.0831  0.9634 -0.2547
    36 O(17)  Bbb    -0.0007     0.048     0.017     0.016 -0.1590  0.2651  0.9510
              Bcc     0.0014    -0.105    -0.037    -0.035  0.9838 -0.0385  0.1752
 
              Baa    -0.1003   -13.458    -4.802    -4.489 -0.1054  0.0966  0.9897
    37 C(13)  Bbb     0.0463     6.215     2.218     2.073  0.8844  0.4641  0.0489
              Bcc     0.0540     7.243     2.585     2.416 -0.4546  0.8805 -0.1344
 
              Baa    -0.1912   -25.655    -9.154    -8.558  0.4095  0.9054 -0.1118
    38 C(13)  Bbb    -0.1717   -23.041    -8.222    -7.686  0.9083 -0.3932  0.1426
              Bcc     0.3629    48.696    17.376    16.243 -0.0851  0.1600  0.9834
 
              Baa    -0.1941   -26.046    -9.294    -8.688 -0.0203  0.0395  0.9990
    39 C(13)  Bbb     0.0467     6.268     2.236     2.091  0.3570  0.9336 -0.0296
              Bcc     0.1474    19.778     7.057     6.597  0.9339 -0.3561  0.0331
 
              Baa    -0.0305    -4.092    -1.460    -1.365  0.7111  0.7029  0.0162
    40 C(13)  Bbb     0.0004     0.057     0.020     0.019 -0.6635  0.6784 -0.3155
              Bcc     0.0301     4.035     1.440     1.346 -0.2328  0.2136  0.9488
 
              Baa    -0.0135    -1.817    -0.648    -0.606 -0.1420  0.3682  0.9188
    41 C(13)  Bbb    -0.0091    -1.223    -0.437    -0.408  0.3305  0.8926 -0.3066
              Bcc     0.0227     3.041     1.085     1.014  0.9331 -0.2602  0.2484
 
              Baa    -0.4394   -58.962   -21.039   -19.667  0.9687  0.1599  0.1898
    42 C(13)  Bbb    -0.4325   -58.041   -20.710   -19.360 -0.1645  0.9863  0.0084
              Bcc     0.8719   117.002    41.749    39.028 -0.1859 -0.0394  0.9818
 
              Baa    -0.5762   -77.319   -27.589   -25.791 -0.4854  0.1059  0.8679
    43 C(13)  Bbb    -0.5737   -76.990   -27.472   -25.681 -0.1098  0.9774 -0.1807
              Bcc     1.1499   154.309    55.061    51.472  0.8674  0.1830  0.4628
 
              Baa    -0.0503    -6.756    -2.411    -2.254 -0.5713  0.8188 -0.0563
    44 C(13)  Bbb    -0.0371    -4.973    -1.775    -1.659  0.8184  0.5735  0.0363
              Bcc     0.0874    11.729     4.185     3.912 -0.0620  0.0253  0.9978
 
              Baa    -0.0233    -3.124    -1.115    -1.042 -0.3845  0.7853 -0.4853
    45 C(13)  Bbb    -0.0016    -0.215    -0.077    -0.072  0.9226  0.3085 -0.2317
              Bcc     0.0249     3.339     1.191     1.114  0.0322  0.5368  0.8431
 
              Baa    -0.0838   -11.239    -4.010    -3.749  0.8277 -0.5605  0.0268
    46 C(13)  Bbb    -0.0461    -6.189    -2.208    -2.064  0.5508  0.8024 -0.2297
              Bcc     0.1299    17.428     6.219     5.813  0.1072  0.2048  0.9729
 
              Baa    -0.0578    -7.752    -2.766    -2.586  0.2802  0.0591  0.9581
    47 C(13)  Bbb     0.0227     3.045     1.087     1.016 -0.2362  0.9717  0.0092
              Bcc     0.0351     4.707     1.679     1.570  0.9304  0.2289 -0.2862
 
              Baa    -0.0070    -0.939    -0.335    -0.313  0.1283 -0.4075  0.9042
    48 C(13)  Bbb    -0.0034    -0.454    -0.162    -0.152  0.9387 -0.2443 -0.2433
              Bcc     0.0104     1.393     0.497     0.465  0.3201  0.8799  0.3512
 
              Baa    -0.6267   -84.099   -30.008   -28.052 -0.4122  0.1679  0.8955
    49 C(13)  Bbb     0.3110    41.727    14.889    13.919 -0.2625  0.9193 -0.2932
              Bcc     0.3158    42.371    15.119    14.134  0.8725  0.3559  0.3348
 
              Baa    -0.5051   -67.783   -24.187   -22.610  0.9760 -0.0400  0.2140
    50 C(13)  Bbb    -0.5014   -67.283   -24.008   -22.443 -0.1580  0.5463  0.8225
              Bcc     1.0065   135.066    48.195    45.053  0.1498  0.8366 -0.5269
 
              Baa    -0.0427    -5.735    -2.046    -1.913 -0.0125 -0.0211  0.9997
    51 C(13)  Bbb     0.0177     2.372     0.846     0.791  0.9838 -0.1789  0.0085
              Bcc     0.0251     3.363     1.200     1.122  0.1787  0.9836  0.0230
 
              Baa    -0.0399    -5.350    -1.909    -1.785  0.9288  0.3656  0.0609
    52 C(13)  Bbb    -0.0335    -4.500    -1.606    -1.501 -0.3684  0.9286  0.0440
              Bcc     0.0734     9.850     3.515     3.286 -0.0405 -0.0633  0.9972
 
              Baa    -0.0421    -5.651    -2.017    -1.885 -0.1722 -0.0380  0.9843
    53 C(13)  Bbb     0.0191     2.560     0.913     0.854  0.6438  0.7520  0.1416
              Bcc     0.0230     3.092     1.103     1.031  0.7456 -0.6581  0.1051
 
              Baa    -0.0466    -6.250    -2.230    -2.085  0.6063  0.7880  0.1074
    54 C(13)  Bbb    -0.0313    -4.194    -1.497    -1.399  0.7925 -0.6099  0.0010
              Bcc     0.0778    10.444     3.727     3.484 -0.0663 -0.0845  0.9942
 
              Baa    -0.0017    -0.234    -0.083    -0.078  0.8180  0.3797 -0.4322
    55 C(13)  Bbb    -0.0009    -0.127    -0.045    -0.043  0.4040  0.1556  0.9014
              Bcc     0.0027     0.361     0.129     0.120 -0.4095  0.9119  0.0261
 
              Baa    -0.0023    -0.305    -0.109    -0.102 -0.1768 -0.1598  0.9712
    56 C(13)  Bbb    -0.0005    -0.064    -0.023    -0.021  0.6600  0.7128  0.2375
              Bcc     0.0028     0.369     0.132     0.123  0.7302 -0.6829  0.0206
 
              Baa    -0.0020    -0.262    -0.094    -0.088 -0.4282 -0.2585  0.8659
    57 C(13)  Bbb    -0.0003    -0.041    -0.015    -0.014  0.5959  0.6396  0.4857
              Bcc     0.0023     0.303     0.108     0.101 -0.6794  0.7239 -0.1199
 
              Baa    -0.0013    -0.178    -0.064    -0.059  0.4441  0.7548  0.4828
    58 C(13)  Bbb    -0.0008    -0.103    -0.037    -0.034 -0.0898 -0.4986  0.8622
              Bcc     0.0021     0.281     0.100     0.094  0.8915 -0.4262 -0.1536
 
              Baa    -0.0018     0.134     0.048     0.045  0.1443  0.7875  0.5992
    59 O(17)  Bbb    -0.0003     0.018     0.007     0.006  0.0134 -0.6071  0.7945
              Bcc     0.0021    -0.152    -0.054    -0.051  0.9894 -0.1066 -0.0982
 
              Baa    -0.0008     0.061     0.022     0.020  0.4004  0.6678  0.6275
    60 O(17)  Bbb    -0.0006     0.041     0.015     0.014 -0.2599 -0.5739  0.7766
              Bcc     0.0014    -0.101    -0.036    -0.034  0.8787 -0.4740 -0.0562
 
              Baa    -0.0512    -1.975    -0.705    -0.659  0.8766  0.4412 -0.1920
    61 N(14)  Bbb     0.0086     0.330     0.118     0.110 -0.3878  0.8840  0.2609
              Bcc     0.0426     1.644     0.587     0.549  0.2849 -0.1543  0.9461
 
              Baa    -0.1501    -5.789    -2.066    -1.931 -0.5401  0.8339 -0.1133
    62 N(14)  Bbb    -0.1342    -5.175    -1.847    -1.726  0.8325  0.5491  0.0732
              Bcc     0.2843    10.964     3.912     3.657 -0.1233  0.0548  0.9909
 
              Baa    -0.0342    -1.321    -0.471    -0.441  0.9264  0.3726 -0.0540
    63 N(14)  Bbb     0.0033     0.128     0.046     0.043 -0.1747  0.5527  0.8149
              Bcc     0.0309     1.192     0.426     0.398 -0.3335  0.7455 -0.5771
 
              Baa    -0.0858    -3.310    -1.181    -1.104 -0.6195  0.7849 -0.0128
    64 N(14)  Bbb    -0.0428    -1.651    -0.589    -0.551  0.7791  0.6168  0.1123
              Bcc     0.1286     4.961     1.770     1.655 -0.0961 -0.0596  0.9936
 
              Baa    -1.2594   -21.804    -7.780    -7.273 -0.4759  0.7554  0.4504
    65 Fe(57) Bbb     0.3321     5.750     2.052     1.918  0.2835 -0.3531  0.8916
              Bcc     0.9273    16.054     5.728     5.355  0.8326  0.5520 -0.0461
 
              Baa    -0.0101    -5.367    -1.915    -1.790  0.9411 -0.3355  0.0419
    66 H(1)   Bbb    -0.0037    -1.990    -0.710    -0.664 -0.0343  0.0288  0.9990
              Bcc     0.0138     7.357     2.625     2.454  0.3363  0.9416 -0.0156
 
              Baa    -0.0105    -5.583    -1.992    -1.862 -0.0289  0.0470  0.9985
    67 H(1)   Bbb    -0.0013    -0.675    -0.241    -0.225  0.9988  0.0415  0.0269
              Bcc     0.0117     6.257     2.233     2.087 -0.0401  0.9980 -0.0481
 
              Baa    -0.0169    -8.997    -3.210    -3.001  0.9815 -0.1756  0.0765
    68 H(1)   Bbb    -0.0006    -0.333    -0.119    -0.111 -0.0664  0.0630  0.9958
              Bcc     0.0175     9.330     3.329     3.112  0.1796  0.9824 -0.0502
 
              Baa    -0.0039    -2.079    -0.742    -0.693 -0.0669 -0.0529  0.9964
    69 H(1)   Bbb    -0.0001    -0.048    -0.017    -0.016  0.2417  0.9680  0.0677
              Bcc     0.0040     2.126     0.759     0.709  0.9680 -0.2454  0.0520
 
              Baa    -0.0026    -1.369    -0.488    -0.457  0.1339  0.1434  0.9806
    70 H(1)   Bbb    -0.0017    -0.895    -0.319    -0.299 -0.5772  0.8156 -0.0405
              Bcc     0.0042     2.264     0.808     0.755  0.8055  0.5606 -0.1920
 
              Baa    -0.0029    -1.566    -0.559    -0.522 -0.1886 -0.0053  0.9820
    71 H(1)   Bbb    -0.0010    -0.546    -0.195    -0.182  0.7071 -0.6947  0.1321
              Bcc     0.0040     2.111     0.753     0.704  0.6815  0.7193  0.1348
 
              Baa    -0.0025    -1.358    -0.485    -0.453 -0.1684 -0.2036  0.9645
    72 H(1)   Bbb    -0.0017    -0.923    -0.329    -0.308 -0.5216  0.8486  0.0881
              Bcc     0.0043     2.282     0.814     0.761  0.8364  0.4882  0.2491
 
              Baa    -0.0024    -1.292    -0.461    -0.431  0.0241 -0.2612  0.9650
    73 H(1)   Bbb    -0.0019    -0.991    -0.354    -0.331  0.0837  0.9624  0.2584
              Bcc     0.0043     2.284     0.815     0.762  0.9962 -0.0746 -0.0451
 
              Baa    -0.0021    -1.104    -0.394    -0.368 -0.2730  0.2229  0.9358
    74 H(1)   Bbb    -0.0013    -0.694    -0.248    -0.231  0.1287  0.9725 -0.1941
              Bcc     0.0034     1.798     0.642     0.600  0.9534 -0.0674  0.2942
 
              Baa    -0.0013    -0.695    -0.248    -0.232 -0.0468  0.1581  0.9863
    75 H(1)   Bbb    -0.0010    -0.538    -0.192    -0.179 -0.2514  0.9537 -0.1648
              Bcc     0.0023     1.232     0.440     0.411  0.9668  0.2557  0.0049
 
              Baa    -0.0013    -0.677    -0.242    -0.226  0.1910  0.0967  0.9768
    76 H(1)   Bbb    -0.0009    -0.504    -0.180    -0.168 -0.1294  0.9889 -0.0725
              Bcc     0.0022     1.181     0.421     0.394  0.9730  0.1126 -0.2014
 
              Baa    -0.0084    -4.464    -1.593    -1.489  0.1202  0.3910  0.9125
    77 H(1)   Bbb    -0.0001    -0.071    -0.025    -0.024 -0.6117  0.7532 -0.2421
              Bcc     0.0085     4.535     1.618     1.513  0.7819  0.5290 -0.3297
 
              Baa    -0.0189   -10.080    -3.597    -3.362  0.0607  0.3931  0.9175
    78 H(1)   Bbb    -0.0052    -2.795    -0.997    -0.932 -0.3759  0.8605 -0.3438
              Bcc     0.0241    12.875     4.594     4.295  0.9247  0.3240 -0.2000
 
              Baa    -0.0085    -4.527    -1.616    -1.510 -0.2539 -0.2155  0.9429
    79 H(1)   Bbb    -0.0011    -0.610    -0.218    -0.204 -0.6510  0.7591 -0.0018
              Bcc     0.0096     5.138     1.833     1.714  0.7154  0.6143  0.3330
 
              Baa    -0.0052    -2.776    -0.991    -0.926 -0.1284 -0.0330  0.9912
    80 H(1)   Bbb    -0.0009    -0.493    -0.176    -0.164  0.9861 -0.1101  0.1241
              Bcc     0.0061     3.269     1.167     1.091  0.1050  0.9934  0.0467
 
              Baa    -0.0092    -4.908    -1.751    -1.637  0.6745 -0.2856  0.6808
    81 H(1)   Bbb    -0.0027    -1.417    -0.506    -0.473  0.7028  0.5307 -0.4737
              Bcc     0.0119     6.325     2.257     2.110 -0.2260  0.7980  0.5587
 
              Baa    -0.0036    -1.933    -0.690    -0.645  0.4212 -0.2320  0.8768
    82 H(1)   Bbb     0.0004     0.190     0.068     0.063  0.6891 -0.5466 -0.4757
              Bcc     0.0033     1.743     0.622     0.581  0.5896  0.8046 -0.0704
 
              Baa    -0.0019    -0.999    -0.357    -0.333 -0.0157 -0.2779  0.9605
    83 H(1)   Bbb    -0.0015    -0.782    -0.279    -0.261  0.9319  0.3441  0.1148
              Bcc     0.0033     1.782     0.636     0.594 -0.3624  0.8968  0.2536
 
              Baa    -0.0016    -0.878    -0.313    -0.293  0.3372  0.3172  0.8864
    84 H(1)   Bbb    -0.0016    -0.830    -0.296    -0.277  0.7499  0.4788 -0.4566
              Bcc     0.0032     1.709     0.610     0.570 -0.5692  0.8186 -0.0764
 
              Baa    -0.0021    -1.123    -0.401    -0.375 -0.1810  0.0676  0.9811
    85 H(1)   Bbb    -0.0014    -0.735    -0.262    -0.245  0.9507  0.2673  0.1570
              Bcc     0.0035     1.859     0.663     0.620 -0.2516  0.9612 -0.1127
 
              Baa    -0.0013    -0.683    -0.244    -0.228 -0.2057  0.0320  0.9781
    86 H(1)   Bbb    -0.0008    -0.442    -0.158    -0.147  0.6456  0.7556  0.1110
              Bcc     0.0021     1.125     0.401     0.375  0.7355 -0.6543  0.1761
 
              Baa    -0.0018    -0.966    -0.345    -0.322 -0.2743 -0.1051  0.9559
    87 H(1)   Bbb    -0.0016    -0.866    -0.309    -0.289  0.5205  0.8196  0.2395
              Bcc     0.0034     1.832     0.654     0.611  0.8086 -0.5633  0.1701
 
              Baa    -0.0018    -0.976    -0.348    -0.325  0.0913 -0.3433  0.9348
    88 H(1)   Bbb    -0.0012    -0.638    -0.228    -0.213  0.6453  0.7354  0.2071
              Bcc     0.0030     1.614     0.576     0.538  0.7585 -0.5843 -0.2887
 
              Baa    -0.0009    -0.455    -0.162    -0.152  0.0904 -0.0957  0.9913
    89 H(1)   Bbb    -0.0006    -0.338    -0.121    -0.113  0.6098  0.7923  0.0209
              Bcc     0.0015     0.793     0.283     0.265  0.7874 -0.6026 -0.1299
 
              Baa    -0.0006    -0.296    -0.106    -0.099 -0.0783 -0.0504  0.9957
    90 H(1)   Bbb    -0.0005    -0.240    -0.086    -0.080  0.5048  0.8592  0.0832
              Bcc     0.0010     0.536     0.191     0.179  0.8597 -0.5091  0.0419
 
              Baa    -0.0005    -0.273    -0.098    -0.091  0.1027  0.0656  0.9925
    91 H(1)   Bbb    -0.0004    -0.237    -0.085    -0.079 -0.0189  0.9978 -0.0640
              Bcc     0.0010     0.511     0.182     0.170  0.9945  0.0122 -0.1037
 
              Baa    -0.0754   -40.240   -14.358   -13.422 -0.4165  0.7628  0.4947
    92 H(1)   Bbb    -0.0022    -1.180    -0.421    -0.394  0.8814  0.2054  0.4254
              Bcc     0.0776    41.419    14.779    13.816 -0.2229 -0.6132  0.7578
 
              Baa    -0.0673   -35.904   -12.811   -11.976  0.6261  0.3003  0.7196
    93 H(1)   Bbb     0.0091     4.853     1.732     1.619  0.1434  0.8628 -0.4848
              Bcc     0.0582    31.052    11.080    10.358  0.7665 -0.4067 -0.4971
 
              Baa    -0.0023    -1.202    -0.429    -0.401  0.5082  0.7112  0.4857
    94 H(1)   Bbb    -0.0017    -0.887    -0.316    -0.296 -0.6475  0.6874 -0.3290
              Bcc     0.0039     2.088     0.745     0.697 -0.5679 -0.1472  0.8098
 
              Baa    -0.0012    -0.661    -0.236    -0.221  0.5926  0.7021  0.3948
    95 H(1)   Bbb    -0.0010    -0.547    -0.195    -0.183  0.7985 -0.5766 -0.1730
              Bcc     0.0023     1.209     0.431     0.403 -0.1061 -0.4178  0.9023
 
              Baa    -0.0686   -36.582   -13.053   -12.202  0.9888 -0.1466  0.0288
    96 H(1)   Bbb     0.0091     4.834     1.725     1.613  0.1332  0.7777 -0.6143
              Bcc     0.0595    31.747    11.328    10.590  0.0677  0.6112  0.7885
 
              Baa    -0.0326   -17.374    -6.199    -5.795 -0.3880  0.7869 -0.4798
    97 H(1)   Bbb    -0.0124    -6.610    -2.359    -2.205 -0.4848  0.2685  0.8324
              Bcc     0.0450    23.984     8.558     8.000  0.7839  0.5555  0.2773
 
              Baa    -0.0760   -40.573   -14.477   -13.534  0.0769  0.8743 -0.4792
    98 H(1)   Bbb    -0.0010    -0.534    -0.191    -0.178  0.8557  0.1888  0.4818
              Bcc     0.0770    41.107    14.668    13.712 -0.5117  0.4471  0.7337
 
              Baa    -0.0555   -29.612   -10.566    -9.877  0.7475 -0.6548  0.1115
    99 H(1)   Bbb    -0.0060    -3.179    -1.134    -1.060 -0.1829 -0.0416  0.9823
              Bcc     0.0615    32.791    11.701    10.938  0.6385  0.7547  0.1508
 

 ---------------------------------------------------------------------------------

 1\1\GINC-NODE487\SP\UPBE1PBE\def2TZVP\C41H46Fe1N6O4S1(5)\ZHARTOVSKA\19
 -Jan-2023\0\\# PBE1PBE/def2TZVP empiricaldispersion=GD3BJ int=(grid=ul
 trafine) geom=check guess=read scrf=(smd,solvent=Chloroform)\\1qpu_II_
 Q_solv\\0,5\C,0,2.282,-5.169,8.634\C,0,3.509,-5.724,7.905\S,0,3.301,-5
 .824,6.104\C,0,4.897,-5.355,5.406\H,0,2.46731386,-5.15936603,9.6877864
 9\H,0,1.43388655,-5.787553,8.42664582\H,0,4.324,-5.028,8.095\H,0,3.791
 ,-6.69,8.319\H,0,5.164,-4.376,5.804\H,0,5.661,-6.086,5.662\H,0,4.798,-
 5.274,4.324\C,0,0.966,-12.429,2.492\C,0,0.992,-11.18,3.345\N,0,-0.055,
 -10.84,4.164\C,0,1.929,-10.176,3.425\C,0,0.226,-9.654,4.709\N,0,1.436,
 -9.215,4.325\H,0,0.21168143,-12.33130538,1.73943156\H,0,0.7481295,-13.
 27674538,3.10743498\H,0,-0.949,-11.309,4.18\H,0,2.864,-10.127,2.888\H,
 0,-0.457,-9.141,5.365\C,0,2.314,-8.973,8.107\C,0,-0.757,-6.058,5.779\C
 ,0,2.335,-6.11,1.965\C,0,5.465,-8.968,4.422\C,0,1.226,-8.25,7.755\C,0,
 0.107,-8.117,8.63\C,0,-0.757,-7.265,8.011\C,0,-0.191,-6.899,6.728\C,0,
 -2.005,-6.837,8.669\C,0,0.025,-8.751,10.003\C,0,-0.643,-8.068,11.217\C
 ,0,-0.866,-9.024,12.375\O,0,-0.739,-8.55,13.523\O,0,-1.21,-10.192,12.0
 89\C,0,-0.156,-5.832,4.532\C,0,-0.669,-4.922,3.536\C,0,0.206,-4.945,2.
 47\C,0,1.26,-5.86,2.806\C,0,-1.853,-4.028,3.762\C,0,0.182,-4.178,1.173
 \C,0,-1.055,-3.366,0.836\C,0,3.427,-6.904,2.311\C,0,4.529,-7.184,1.431
 \C,0,5.431,-7.971,2.114\C,0,4.86,-8.208,3.42\C,0,4.516,-6.824,-0.022\C
 ,0,6.755,-8.516,1.615\C,0,7.42,-7.741,0.48\C,0,4.87,-9.139,5.664\C,0,5
 .437,-9.871,6.774\C,0,4.524,-9.875,7.778\C,0,3.412,-9.117,7.329\C,0,6.
 738,-10.558,6.92\C,0,4.537,-10.691,9.042\C,0,5.019,-9.893,10.237\C,0,4
 .08,-10.031,11.412\O,0,3.575,-8.969,11.83\O,0,3.845,-11.19,11.812\N,0,
 1.007,-7.536,6.637\N,0,1.002,-6.365,4.033\N,0,3.649,-7.553,3.467\N,0,3
 .652,-8.675,6.086\Fe,0,2.258,-7.553,5.013\H,0,-1.686,-5.569,6.019\H,0,
 2.316,-5.623,1.005\H,0,6.418,-9.439,4.239\H,0,2.334,-9.411,9.085\H,0,-
 1.677,-6.14,9.44\H,0,-2.746,-6.429,7.988\H,0,-2.345,-7.759,9.139\H,0,0
 .999,-8.495,10.306\H,0,0.074,-9.856,9.977\H,0,-1.591,-7.597,11.021\H,0
 ,0.034,-7.278,11.56\H,0,-1.732,-3.646,4.768\H,0,-1.898,-3.178,3.088\H,
 0,-2.776,-4.598,3.706\H,0,4.603,-5.747,-0.139\H,0,5.288,-7.325,-0.593\
 H,0,3.54,-7.158,-0.366\H,0,7.47,-9.817,7.227\H,0,6.536,-11.273,7.724\H
 ,0,7.033,-11.061,6.01\H,0,4.91,-11.691,9.02\H,0,3.545,-11.02,9.192\H,0
 ,4.974,-8.851,9.953\H,0,6.036,-10.179,10.508\H,0,4.5711661,-11.7835636
 ,12.0168537\H,0,0.13689903,-8.40003863,13.88619758\H,0,-1.26640411,-2.
 46516465,1.37331181\H,0,6.9546156,-7.69729279,-0.48250041\H,0,2.087451
 12,-4.17228276,8.29694589\H,0,1.91979822,-12.56241773,2.02577187\H,0,8
 .35142881,-7.24157275,0.64707123\H,0,7.198495,-9.39461495,2.03481895\H
 ,0,-1.71576114,-3.69432267,0.06108133\H,0,1.01764659,-4.2052942,0.5052
 8014\\Version=ES64L-G16RevA.03\State=5-A\HF=-3879.2506731\S2=6.587903\
 S2-1=0.\S2A=6.081182\RMSD=1.740e-09\Dipole=-0.1866689,-1.6319989,1.666
 0828\Quadrupole=-5.6655036,18.0140133,-12.3485097,-8.6235318,45.709754
 6,11.3034239\PG=C01 [X(C41H46Fe1N6O4S1)]\\@


 IT IS BY LOGIC THAT WE PROVE, BUT BY INTUITION THAT WE DISCOVER.
     -- J.H.POINCARE (1854-1912)
 Job cpu time:       8 days 16 hours 35 minutes 17.5 seconds.
 Elapsed time:       2 days  4 hours 21 minutes 47.2 seconds.
 File lengths (MBytes):  RWF=   4261 Int=      0 D2E=      0 Chk=    305 Scr=      1
 Normal termination of Gaussian 16 at Thu Jan 19 10:29:43 2023.
