 Entering Gaussian System, Link 0=g16
 Input=/net/homes/chemie/zhartovska/work/BioModel/Konrad/1qpu/1qpu12/1qpu16/1qpu16.com
 Output=/net/homes/chemie/zhartovska/work/BioModel/Konrad/1qpu/1qpu12/1qpu16/1qpu16.log
 Initial command:
 /afs/math/software/gaussian/g16.A03/g16/l1.exe "/scratch/zhartovska_gaussian.Kb91LbS/Gau-17632.inp" -scrdir="/scratch/zhartovska_gaussian.Kb91LbS/"
 Entering Link 1 = /afs/math/software/gaussian/g16.A03/g16/l1.exe PID=     17633.
  
 Copyright (c) 1988,1990,1992,1993,1995,1998,2003,2009,2016,
            Gaussian, Inc.  All Rights Reserved.
  
 This is part of the Gaussian(R) 16 program.  It is based on
 the Gaussian(R) 09 system (copyright 2009, Gaussian, Inc.),
 the Gaussian(R) 03 system (copyright 2003, Gaussian, Inc.),
 the Gaussian(R) 98 system (copyright 1998, Gaussian, Inc.),
 the Gaussian(R) 94 system (copyright 1995, Gaussian, Inc.),
 the Gaussian 92(TM) system (copyright 1992, Gaussian, Inc.),
 the Gaussian 90(TM) system (copyright 1990, Gaussian, Inc.),
 the Gaussian 88(TM) system (copyright 1988, Gaussian, Inc.),
 the Gaussian 86(TM) system (copyright 1986, Carnegie Mellon
 University), and the Gaussian 82(TM) system (copyright 1983,
 Carnegie Mellon University). Gaussian is a federally registered
 trademark of Gaussian, Inc.
  
 This software contains proprietary and confidential information,
 including trade secrets, belonging to Gaussian, Inc.
  
 This software is provided under written license and may be
 used, copied, transmitted, or stored only in accord with that
 written license.
  
 The following legend is applicable only to US Government
 contracts under FAR:
  
                    RESTRICTED RIGHTS LEGEND
  
 Use, reproduction and disclosure by the US Government is
 subject to restrictions as set forth in subparagraphs (a)
 and (c) of the Commercial Computer Software - Restricted
 Rights clause in FAR 52.227-19.
  
 Gaussian, Inc.
 340 Quinnipiac St., Bldg. 40, Wallingford CT 06492
  
  
 ---------------------------------------------------------------
 Warning -- This program may not be used in any manner that
 competes with the business of Gaussian, Inc. or will provide
 assistance to any competitor of Gaussian, Inc.  The licensee
 of this program is prohibited from giving any competitor of
 Gaussian, Inc. access to this program.  By using this program,
 the user acknowledges that Gaussian, Inc. is engaged in the
 business of creating and licensing software in the field of
 computational chemistry and represents and warrants to the
 licensee that it is not a competitor of Gaussian, Inc. and that
 it will not use this program in any manner prohibited above.
 ---------------------------------------------------------------
  

 Cite this work as:
 Gaussian 16, Revision A.03,
 M. J. Frisch, G. W. Trucks, H. B. Schlegel, G. E. Scuseria, 
 M. A. Robb, J. R. Cheeseman, G. Scalmani, V. Barone, 
 G. A. Petersson, H. Nakatsuji, X. Li, M. Caricato, A. V. Marenich, 
 J. Bloino, B. G. Janesko, R. Gomperts, B. Mennucci, H. P. Hratchian, 
 J. V. Ortiz, A. F. Izmaylov, J. L. Sonnenberg, D. Williams-Young, 
 F. Ding, F. Lipparini, F. Egidi, J. Goings, B. Peng, A. Petrone, 
 T. Henderson, D. Ranasinghe, V. G. Zakrzewski, J. Gao, N. Rega, 
 G. Zheng, W. Liang, M. Hada, M. Ehara, K. Toyota, R. Fukuda, 
 J. Hasegawa, M. Ishida, T. Nakajima, Y. Honda, O. Kitao, H. Nakai, 
 T. Vreven, K. Throssell, J. A. Montgomery, Jr., J. E. Peralta, 
 F. Ogliaro, M. J. Bearpark, J. J. Heyd, E. N. Brothers, K. N. Kudin, 
 V. N. Staroverov, T. A. Keith, R. Kobayashi, J. Normand, 
 K. Raghavachari, A. P. Rendell, J. C. Burant, S. S. Iyengar, 
 J. Tomasi, M. Cossi, J. M. Millam, M. Klene, C. Adamo, R. Cammi, 
 J. W. Ochterski, R. L. Martin, K. Morokuma, O. Farkas, 
 J. B. Foresman, and D. J. Fox, Gaussian, Inc., Wallingford CT, 2016.
 
 ******************************************
 Gaussian 16:  AM64L-G16RevA.03 25-Dec-2016
                19-Jan-2023 
 ******************************************
 %nprocs=12
 Will use up to   12 processors via shared memory.
 %mem=16GB
 %oldchk=1qpu_III_D.chk
 %chk=1qpu_III_H.chk
 Copying data from "1qpu_III_D.chk" to current chk file "1qpu_III_H.chk"
 IOpt=  2 FromEx=T IUOpen= 4 IOptOp= 5 NList=   0 IFRang= 0 IUIn= 4 IUOut= 2.
 ----------------------------------------------------------------------
 # PBE1PBE/def2TZVP empiricaldispersion=GD3BJ int=(grid=ultrafine) geom
 =check pop=nbo
 ----------------------------------------------------------------------
 1/29=2,38=1,172=1/1;
 2/12=2,40=1/2;
 3/5=44,7=101,11=2,14=-4,25=1,30=1,74=-13,75=-5,124=41/1,2,3;
 4//1;
 5/5=2,38=5/2;
 6/7=2,8=2,9=2,10=2,28=1,40=1/1,7;
 99/5=1,9=1/99;
 ----------
 1qpu_III_H
 ----------
 Structure from the checkpoint file:  "1qpu_III_H.chk"
 Charge =  1 Multiplicity = 6
 Z-Matrix found in chk file.
 C,0,2.282,-5.169,8.634
 C,0,3.509,-5.724,7.905
 S,0,3.301,-5.824,6.104
 C,0,4.897,-5.355,5.406
 H,0,2.46731386,-5.15936603,9.68778649
 H,0,1.43388655,-5.787553,8.42664582
 H,0,4.324,-5.028,8.095
 H,0,3.791,-6.69,8.319
 H,0,5.164,-4.376,5.804
 H,0,5.661,-6.086,5.662
 H,0,4.798,-5.274,4.324
 C,0,0.966,-12.429,2.492
 C,0,0.992,-11.18,3.345
 N,0,-0.055,-10.84,4.164
 C,0,1.929,-10.176,3.425
 C,0,0.226,-9.654,4.709
 N,0,1.436,-9.215,4.325
 H,0,0.21168143,-12.33130538,1.73943156
 H,0,0.7481295,-13.27674538,3.10743498
 H,0,-0.949,-11.309,4.18
 H,0,2.864,-10.127,2.888
 H,0,-0.457,-9.141,5.365
 C,0,2.314,-8.973,8.107
 C,0,-0.757,-6.058,5.779
 C,0,2.335,-6.11,1.965
 C,0,5.465,-8.968,4.422
 C,0,1.226,-8.25,7.755
 C,0,0.107,-8.117,8.63
 C,0,-0.757,-7.265,8.011
 C,0,-0.191,-6.899,6.728
 C,0,-2.005,-6.837,8.669
 C,0,0.025,-8.751,10.003
 C,0,-0.643,-8.068,11.217
 C,0,-0.866,-9.024,12.375
 O,0,-0.739,-8.55,13.523
 O,0,-1.21,-10.192,12.089
 C,0,-0.156,-5.832,4.532
 C,0,-0.669,-4.922,3.536
 C,0,0.206,-4.945,2.47
 C,0,1.26,-5.86,2.806
 C,0,-1.853,-4.028,3.762
 C,0,0.182,-4.178,1.173
 C,0,-1.055,-3.366,0.836
 C,0,3.427,-6.904,2.311
 C,0,4.529,-7.184,1.431
 C,0,5.431,-7.971,2.114
 C,0,4.86,-8.208,3.42
 C,0,4.516,-6.824,-0.022
 C,0,6.755,-8.516,1.615
 C,0,7.42,-7.741,0.48
 C,0,4.87,-9.139,5.664
 C,0,5.437,-9.871,6.774
 C,0,4.524,-9.875,7.778
 C,0,3.412,-9.117,7.329
 C,0,6.738,-10.558,6.92
 C,0,4.537,-10.691,9.042
 C,0,5.019,-9.893,10.237
 C,0,4.08,-10.031,11.412
 O,0,3.575,-8.969,11.83
 O,0,3.845,-11.19,11.812
 N,0,1.007,-7.536,6.637
 N,0,1.002,-6.365,4.033
 N,0,3.649,-7.553,3.467
 N,0,3.652,-8.675,6.086
 Fe,0,2.258,-7.553,5.013
 H,0,-1.686,-5.569,6.019
 H,0,2.316,-5.623,1.005
 H,0,6.418,-9.439,4.239
 H,0,2.334,-9.411,9.085
 H,0,-1.677,-6.14,9.44
 H,0,-2.746,-6.429,7.988
 H,0,-2.345,-7.759,9.139
 H,0,0.999,-8.495,10.306
 H,0,0.074,-9.856,9.977
 H,0,-1.591,-7.597,11.021
 H,0,0.034,-7.278,11.56
 H,0,-1.732,-3.646,4.768
 H,0,-1.898,-3.178,3.088
 H,0,-2.776,-4.598,3.706
 H,0,4.603,-5.747,-0.139
 H,0,5.288,-7.325,-0.593
 H,0,3.54,-7.158,-0.366
 H,0,7.47,-9.817,7.227
 H,0,6.536,-11.273,7.724
 H,0,7.033,-11.061,6.01
 H,0,4.91,-11.691,9.02
 H,0,3.545,-11.02,9.192
 H,0,4.974,-8.851,9.953
 H,0,6.036,-10.179,10.508
 H,0,4.5711661,-11.7835636,12.0168537
 H,0,0.13689903,-8.40003863,13.88619758
 H,0,-1.26640411,-2.46516465,1.37331181
 H,0,6.9546156,-7.69729279,-0.48250041
 H,0,2.08745112,-4.17228276,8.29694589
 H,0,1.91979822,-12.56241773,2.02577187
 H,0,8.35142881,-7.24157275,0.64707123
 H,0,7.198495,-9.39461495,2.03481895
 H,0,-1.71576114,-3.69432267,0.06108133
 H,0,1.01764659,-4.2052942,0.50528014
 Recover connectivity data from disk.
 Stoichiometry    C41H46FeN6O4S(1+,6)
 Framework group  C1[X(C41H46FeN6O4S)]
 Deg. of freedom   291
 Full point group                 C1      NOp   1
 Largest Abelian subgroup         C1      NOp   1
 Largest concise Abelian subgroup C1      NOp   1
                         Standard orientation:                         
 ---------------------------------------------------------------------
 Center     Atomic      Atomic             Coordinates (Angstroms)
 Number     Number       Type             X           Y           Z
 ---------------------------------------------------------------------
      1          6           0        1.825752    1.252355   -3.086128
      2          6           0        1.072856   -0.076888   -2.980033
      3         16           0       -0.585717    0.082651   -2.258544
      4          6           0       -1.628464   -1.060936   -3.185511
      5          1           0        2.798313    1.079553   -3.497423
      6          1           0        1.922062    1.686380   -2.112862
      7          1           0        0.945707   -0.443544   -3.996958
      8          1           0        1.667100   -0.806443   -2.433499
      9          1           0       -1.540405   -0.814697   -4.243691
     10          1           0       -1.322463   -2.090490   -3.012380
     11          1           0       -2.664881   -0.917830   -2.881459
     12          6           0       -1.977414   -1.100435    5.408808
     13          6           0       -1.484939   -0.518347    4.102313
     14          7           0       -0.620788    0.546696    4.063641
     15          6           0       -1.814848   -0.836854    2.805355
     16          6           0       -0.447308    0.880897    2.782705
     17          7           0       -1.120563    0.052896    1.966974
     18          1           0       -2.597910   -0.384887    5.906679
     19          1           0       -1.140219   -1.340335    6.030461
     20          1           0       -0.341983    1.091086    4.866984
     21          1           0       -2.490618   -1.616519    2.488413
     22          1           0        0.158643    1.717861    2.478881
     23          6           0        2.282875   -0.649626    0.218819
     24          6           0       -0.180020    3.497667   -0.067466
     25          6           0       -4.304226    0.845468   -0.325393
     26          6           0       -1.742306   -3.326906   -0.152844
     27          6           0        1.939749    0.658979    0.232795
     28          6           0        2.921456    1.683261    0.383036
     29          6           0        2.254750    2.865283    0.265184
     30          6           0        0.846805    2.574813    0.081558
     31          6           0        2.975545    4.151039    0.295799
     32          6           0        4.404935    1.419180    0.535877
     33          6           0        5.497493    2.318467   -0.083888
     34          6           0        6.880410    2.020923    0.467145
     35          8           0        7.834465    2.127103   -0.331112
     36          8           0        6.959555    1.746295    1.684795
     37          6           0       -1.523782    3.106942   -0.161928
     38          6           0       -2.621504    4.018632   -0.378982
     39          6           0       -3.773804    3.263782   -0.449087
     40          6           0       -3.391737    1.889955   -0.282770
     41          6           0       -2.441251    5.486181   -0.635844
     42          6           0       -5.201396    3.684581   -0.685696
     43          6           0       -5.528694    5.166449   -0.680472
     44          6           0       -3.949460   -0.501653   -0.280428
     45          6           0       -4.895900   -1.583832   -0.299036
     46          6           0       -4.190791   -2.767708   -0.272216
     47          6           0       -2.792824   -2.409419   -0.200375
     48          6           0       -6.370809   -1.371547   -0.155660
     49          6           0       -4.742565   -4.179894   -0.288919
     50          6           0       -6.129119   -4.356305   -0.903264
     51          6           0       -0.418234   -2.914098   -0.105400
     52          6           0        0.734324   -3.786411   -0.095803
     53          6           0        1.840490   -3.010932    0.033151
     54          6           0        1.399861   -1.662631    0.058408
     55          6           0        0.837412   -5.259024   -0.177488
     56          6           0        3.250818   -3.445904    0.325546
     57          6           0        4.110100   -3.488562   -0.922239
     58          6           0        5.417540   -2.759492   -0.721118
     59          8           0        5.628473   -1.801759   -1.493029
     60          8           0        6.130999   -3.135153    0.231962
     61          7           0        0.727846    1.220159    0.077713
     62          7           0       -2.051753    1.844920   -0.110924
     63          7           0       -2.718290   -1.033871   -0.192189
     64          7           0        0.063509   -1.632881   -0.047847
     65         26           0       -1.018939    0.150369   -0.005700
     66          1           0        0.075072    4.543025   -0.111256
     67          1           0       -5.340214    1.118064   -0.432865
     68          1           0       -1.951486   -4.385104   -0.152369
     69          1           0        3.323438   -0.899125    0.279691
     70          1           0        3.480991    4.198865   -0.668603
     71          1           0        2.342439    5.007450    0.508034
     72          1           0        3.712627    3.982789    1.080008
     73          1           0        4.471443    0.694863   -0.223704
     74          1           0        4.652499    0.830191    1.439153
     75          1           0        5.344420    3.378278    0.027153
     76          1           0        5.514732    2.115821   -1.160325
     77          1           0       -1.598312    5.554278   -1.312171
     78          1           0       -3.292357    5.956507   -1.118765
     79          1           0       -2.200802    6.006918    0.286644
     80          1           0       -6.769641   -0.912327   -1.056347
     81          1           0       -6.913134   -2.281234    0.071009
     82          1           0       -6.456310   -0.683448    0.682002
     83          1           0        0.823853   -5.533137   -1.228122
     84          1           0        1.818200   -5.449986    0.269763
     85          1           0        0.049440   -5.749940    0.375896
     86          1           0        3.423164   -4.264495    0.988734
     87          1           0        3.637755   -2.749194    1.018136
     88          1           0        3.582229   -2.929352   -1.681898
     89          1           0        4.276615   -4.517951   -1.241859
     90          1           0        6.359481   -4.063019    0.323935
     91          1           0        8.001145    1.434598   -0.974738
     92          1           0       -5.210578    5.787468   -1.491667
     93          1           0       -6.982858   -3.915208   -0.432665
     94          1           0        1.282956    1.919922   -3.722231
     95          1           0       -2.542460   -1.987817    5.213421
     96          1           0       -6.247104   -4.921034   -1.804408
     97          1           0       -4.191055   -5.006609    0.107667
     98          1           0       -6.077576    5.590242    0.134407
     99          1           0       -5.966410    2.955537   -0.853465
 ---------------------------------------------------------------------
 Rotational constants (GHZ):           0.0723784           0.0429958           0.0339845
 Standard basis: def2TZVP (5D, 7F)
 There are  2206 symmetry adapted cartesian basis functions of A   symmetry.
 There are  1939 symmetry adapted basis functions of A   symmetry.
  1939 basis functions,  3140 primitive gaussians,  2206 cartesian basis functions
   206 alpha electrons      201 beta electrons
       nuclear repulsion energy      8930.8067496212 Hartrees.
 NAtoms=   99 NActive=   99 NUniq=   99 SFac= 1.00D+00 NAtFMM=   60 NAOKFM=T Big=T
 Integral buffers will be    131072 words long.
 Raffenetti 2 integral format.
 Two-electron integral symmetry is turned on.
 Nuclear repulsion after empirical dispersion term =     8930.6559270353 Hartrees.
 One-electron integrals computed using PRISM.
   1 Symmetry operations used in ECPInt.
 ECPInt:  NShTT=  299151 NPrTT=  925475 LenC2=  220277 LenP2D=  440878.
 LDataN:  DoStor=T MaxTD1= 6 Len=  172
 NBasis=  1939 RedAO= T EigKep=  2.66D-06  NBF=  1939
 NBsUse=  1939 1.00D-06 EigRej= -1.00D+00 NBFU=  1939
 ExpMin= 4.20D-02 ExpMax= 3.01D+05 ExpMxC= 2.91D+03 IAcc=3 IRadAn=         5 AccDes= 0.00D+00
 Harris functional with IExCor= 1009 and IRadAn=       5 diagonalized for initial guess.
 HarFok:  IExCor= 1009 AccDes= 0.00D+00 IRadAn=         5 IDoV= 1 UseB2=F ITyADJ=14
 ICtDFT=  3500011 ScaDFX=  1.000000  1.000000  1.000000  1.000000
 FoFCou: FMM=F IPFlag=           0 FMFlag=      100000 FMFlg1=        2001
         NFxFlg=           0 DoJE=T BraDBF=F KetDBF=T FulRan=T
         wScrn=  0.000000 ICntrl=       500 IOpCl=  0 I1Cent=   200000004 NGrid=           0
         NMat0=    1 NMatS0=      1 NMatT0=    0 NMatD0=    1 NMtDS0=    0 NMtDT0=    0
 Petite list used in FoFCou.
 Initial guess <Sx>= 0.0000 <Sy>= 0.0000 <Sz>= 2.5000 <S**2>= 8.7500 S= 2.5000
 Requested convergence on RMS density matrix=1.00D-08 within 128 cycles.
 Requested convergence on MAX density matrix=1.00D-06.
 Requested convergence on             energy=1.00D-06.
 No special actions if energy rises.
 EnCoef did     1 forward-backward iterations
 EnCoef did   100 forward-backward iterations
 EnCoef did     9 forward-backward iterations
 EnCoef did     1 forward-backward iterations
 EnCoef did    11 forward-backward iterations
 EnCoef did     4 forward-backward iterations
 EnCoef did     2 forward-backward iterations
 EnCoef did     2 forward-backward iterations
 EnCoef did     2 forward-backward iterations
 Rare condition: small coef for last iteration:  0.000D+00
 Restarting incremental Fock formation.
 Restarting incremental Fock formation.
 SCF Done:  E(UPBE1PBE) =  -3878.98875378     A.U. after   59 cycles
            NFock= 59  Conv=0.13D-08     -V/T= 2.0032
 <Sx>= 0.0000 <Sy>= 0.0000 <Sz>= 2.5000 <S**2>= 9.0561 S= 2.5506
 <L.S>= 0.000000000000E+00
 Annihilation of the first spin contaminant:
 S**2 before annihilation     9.0561,   after     8.7696

 **********************************************************************

            Population analysis using the SCF density.

 **********************************************************************

 Orbital symmetries:
 Alpha Orbitals:
       Occupied  (A) (A) (A) (A) (A) (A) (A) (A) (A) (A) (A) (A)
                 (A) (A) (A) (A) (A) (A) (A) (A) (A) (A) (A) (A)
                 (A) (A) (A) (A) (A) (A) (A) (A) (A) (A) (A) (A)
                 (A) (A) (A) (A) (A) (A) (A) (A) (A) (A) (A) (A)
                 (A) (A) (A) (A) (A) (A) (A) (A) (A) (A) (A) (A)
                 (A) (A) (A) (A) (A) (A) (A) (A) (A) (A) (A) (A)
                 (A) (A) (A) (A) (A) (A) (A) (A) (A) (A) (A) (A)
                 (A) (A) (A) (A) (A) (A) (A) (A) (A) (A) (A) (A)
                 (A) (A) (A) (A) (A) (A) (A) (A) (A) (A) (A) (A)
                 (A) (A) (A) (A) (A) (A) (A) (A) (A) (A) (A) (A)
                 (A) (A) (A) (A) (A) (A) (A) (A) (A) (A) (A) (A)
                 (A) (A) (A) (A) (A) (A) (A) (A) (A) (A) (A) (A)
                 (A) (A) (A) (A) (A) (A) (A) (A) (A) (A) (A) (A)
                 (A) (A) (A) (A) (A) (A) (A) (A) (A) (A) (A) (A)
                 (A) (A) (A) (A) (A) (A) (A) (A) (A) (A) (A) (A)
                 (A) (A) (A) (A) (A) (A) (A) (A) (A) (A) (A) (A)
                 (A) (A) (A) (A) (A) (A) (A) (A) (A) (A) (A) (A)
                 (A) (A)
       Virtual   (A) (A) (A) (A) (A) (A) (A) (A) (A) (A) (A) (A)
                 (A) (A) (A) (A) (A) (A) (A) (A) (A) (A) (A) (A)
                 (A) (A) (A) (A) (A) (A) (A) (A) (A) (A) (A) (A)
                 (A) (A) (A) (A) (A) (A) (A) (A) (A) (A) (A) (A)
                 (A) (A) (A) (A) (A) (A) (A) (A) (A) (A) (A) (A)
                 (A) (A) (A) (A) (A) (A) (A) (A) (A) (A) (A) (A)
                 (A) (A) (A) (A) (A) (A) (A) (A) (A) (A) (A) (A)
                 (A) (A) (A) (A) (A) (A) (A) (A) (A) (A) (A) (A)
                 (A) (A) (A) (A) (A) (A) (A) (A) (A) (A) (A) (A)
                 (A) (A) (A) (A) (A) (A) (A) (A) (A) (A) (A) (A)
                 (A) (A) (A) (A) (A) (A) (A) (A) (A) (A) (A) (A)
                 (A) (A) (A) (A) (A) (A) (A) (A) (A) (A) (A) (A)
                 (A) (A) (A) (A) (A) (A) (A) (A) (A) (A) (A) (A)
                 (A) (A) (A) (A) (A) (A) (A) (A) (A) (A) (A) (A)
                 (A) (A) (A) (A) (A) (A) (A) (A) (A) (A) (A) (A)
                 (A) (A) (A) (A) (A) (A) (A) (A) (A) (A) (A) (A)
                 (A) (A) (A) (A) (A) (A) (A) (A) (A) (A) (A) (A)
                 (A) (A) (A) (A) (A) (A) (A) (A) (A) (A) (A) (A)
                 (A) (A) (A) (A) (A) (A) (A) (A) (A) (A) (A) (A)
                 (A) (A) (A) (A) (A) (A) (A) (A) (A) (A) (A) (A)
                 (A) (A) (A) (A) (A) (A) (A) (A) (A) (A) (A) (A)
                 (A) (A) (A) (A) (A) (A) (A) (A) (A) (A) (A) (A)
                 (A) (A) (A) (A) (A) (A) (A) (A) (A) (A) (A) (A)
                 (A) (A) (A) (A) (A) (A) (A) (A) (A) (A) (A) (A)
                 (A) (A) (A) (A) (A) (A) (A) (A) (A) (A) (A) (A)
                 (A) (A) (A) (A) (A) (A) (A) (A) (A) (A) (A) (A)
                 (A) (A) (A) (A) (A) (A) (A) (A) (A) (A) (A) (A)
                 (A) (A) (A) (A) (A) (A) (A) (A) (A) (A) (A) (A)
                 (A) (A) (A) (A) (A) (A) (A) (A) (A) (A) (A) (A)
                 (A) (A) (A) (A) (A) (A) (A) (A) (A) (A) (A) (A)
                 (A) (A) (A) (A) (A) (A) (A) (A) (A) (A) (A) (A)
                 (A) (A) (A) (A) (A) (A) (A) (A) (A) (A) (A) (A)
                 (A) (A) (A) (A) (A) (A) (A) (A) (A) (A) (A) (A)
                 (A) (A) (A) (A) (A) (A) (A) (A) (A) (A) (A) (A)
                 (A) (A) (A) (A) (A) (A) (A) (A) (A) (A) (A) (A)
                 (A) (A) (A) (A) (A) (A) (A) (A) (A) (A) (A) (A)
                 (A) (A) (A) (A) (A) (A) (A) (A) (A) (A) (A) (A)
                 (A) (A) (A) (A) (A) (A) (A) (A) (A) (A) (A) (A)
                 (A) (A) (A) (A) (A) (A) (A) (A) (A) (A) (A) (A)
                 (A) (A) (A) (A) (A) (A) (A) (A) (A) (A) (A) (A)
                 (A) (A) (A) (A) (A) (A) (A) (A) (A) (A) (A) (A)
                 (A) (A) (A) (A) (A) (A) (A) (A) (A) (A) (A) (A)
                 (A) (A) (A) (A) (A) (A) (A) (A) (A) (A) (A) (A)
                 (A) (A) (A) (A) (A) (A) (A) (A) (A) (A) (A) (A)
                 (A) (A) (A) (A) (A) (A) (A) (A) (A) (A) (A) (A)
                 (A) (A) (A) (A) (A) (A) (A) (A) (A) (A) (A) (A)
                 (A) (A) (A) (A) (A) (A) (A) (A) (A) (A) (A) (A)
                 (A) (A) (A) (A) (A) (A) (A) (A) (A) (A) (A) (A)
                 (A) (A) (A) (A) (A) (A) (A) (A) (A) (A) (A) (A)
                 (A) (A) (A) (A) (A) (A) (A) (A) (A) (A) (A) (A)
                 (A) (A) (A) (A) (A) (A) (A) (A) (A) (A) (A) (A)
                 (A) (A) (A) (A) (A) (A) (A) (A) (A) (A) (A) (A)
                 (A) (A) (A) (A) (A) (A) (A) (A) (A) (A) (A) (A)
                 (A) (A) (A) (A) (A) (A) (A) (A) (A) (A) (A) (A)
                 (A) (A) (A) (A) (A) (A) (A) (A) (A) (A) (A) (A)
                 (A) (A) (A) (A) (A) (A) (A) (A) (A) (A) (A) (A)
                 (A) (A) (A) (A) (A) (A) (A) (A) (A) (A) (A) (A)
                 (A) (A) (A) (A) (A) (A) (A) (A) (A) (A) (A) (A)
                 (A) (A) (A) (A) (A) (A) (A) (A) (A) (A) (A) (A)
                 (A) (A) (A) (A) (A) (A) (A) (A) (A) (A) (A) (A)
                 (A) (A) (A) (A) (A) (A) (A) (A) (A) (A) (A) (A)
                 (A) (A) (A) (A) (A) (A) (A) (A) (A) (A) (A) (A)
                 (A) (A) (A) (A) (A) (A) (A) (A) (A) (A) (A) (A)
                 (A) (A) (A) (A) (A) (A) (A) (A) (A) (A) (A) (A)
                 (A) (A) (A) (A) (A) (A) (A) (A) (A) (A) (A) (A)
                 (A) (A) (A) (A) (A) (A) (A) (A) (A) (A) (A) (A)
                 (A) (A) (A) (A) (A) (A) (A) (A) (A) (A) (A) (A)
                 (A) (A) (A) (A) (A) (A) (A) (A) (A) (A) (A) (A)
                 (A) (A) (A) (A) (A) (A) (A) (A) (A) (A) (A) (A)
                 (A) (A) (A) (A) (A) (A) (A) (A) (A) (A) (A) (A)
                 (A) (A) (A) (A) (A) (A) (A) (A) (A) (A) (A) (A)
                 (A) (A) (A) (A) (A) (A) (A) (A) (A) (A) (A) (A)
                 (A) (A) (A) (A) (A) (A) (A) (A) (A) (A) (A) (A)
                 (A) (A) (A) (A) (A) (A) (A) (A) (A) (A) (A) (A)
                 (A) (A) (A) (A) (A) (A) (A) (A) (A) (A) (A) (A)
                 (A) (A) (A) (A) (A) (A) (A) (A) (A) (A) (A) (A)
                 (A) (A) (A) (A) (A) (A) (A) (A) (A) (A) (A) (A)
                 (A) (A) (A) (A) (A) (A) (A) (A) (A) (A) (A) (A)
                 (A) (A) (A) (A) (A) (A) (A) (A) (A) (A) (A) (A)
                 (A) (A) (A) (A) (A) (A) (A) (A) (A) (A) (A) (A)
                 (A) (A) (A) (A) (A) (A) (A) (A) (A) (A) (A) (A)
                 (A) (A) (A) (A) (A) (A) (A) (A) (A) (A) (A) (A)
                 (A) (A) (A) (A) (A) (A) (A) (A) (A) (A) (A) (A)
                 (A) (A) (A) (A) (A) (A) (A) (A) (A) (A) (A) (A)
                 (A) (A) (A) (A) (A) (A) (A) (A) (A) (A) (A) (A)
                 (A) (A) (A) (A) (A) (A) (A) (A) (A) (A) (A) (A)
                 (A) (A) (A) (A) (A) (A) (A) (A) (A) (A) (A) (A)
                 (A) (A) (A) (A) (A) (A) (A) (A) (A) (A) (A) (A)
                 (A) (A) (A) (A) (A) (A) (A) (A) (A) (A) (A) (A)
                 (A) (A) (A) (A) (A) (A) (A) (A) (A) (A) (A) (A)
                 (A) (A) (A) (A) (A) (A) (A) (A) (A) (A) (A) (A)
                 (A) (A) (A) (A) (A) (A) (A) (A) (A) (A) (A) (A)
                 (A) (A) (A) (A) (A) (A) (A) (A) (A) (A) (A) (A)
                 (A) (A) (A) (A) (A) (A) (A) (A) (A) (A) (A) (A)
                 (A) (A) (A) (A) (A) (A) (A) (A) (A) (A) (A) (A)
                 (A) (A) (A) (A) (A) (A) (A) (A) (A) (A) (A) (A)
                 (A) (A) (A) (A) (A) (A) (A) (A) (A) (A) (A) (A)
                 (A) (A) (A) (A) (A) (A) (A) (A) (A) (A) (A) (A)
                 (A) (A) (A) (A) (A) (A) (A) (A) (A) (A) (A) (A)
                 (A) (A) (A) (A) (A) (A) (A) (A) (A) (A) (A) (A)
                 (A) (A) (A) (A) (A) (A) (A) (A) (A) (A) (A) (A)
                 (A) (A) (A) (A) (A) (A) (A) (A) (A) (A) (A) (A)
                 (A) (A) (A) (A) (A) (A) (A) (A) (A) (A) (A) (A)
                 (A) (A) (A) (A) (A) (A) (A) (A) (A) (A) (A) (A)
                 (A) (A) (A) (A) (A) (A) (A) (A) (A) (A) (A) (A)
                 (A) (A) (A) (A) (A) (A) (A) (A) (A) (A) (A) (A)
                 (A) (A) (A) (A) (A) (A) (A) (A) (A) (A) (A) (A)
                 (A) (A) (A) (A) (A) (A) (A) (A) (A) (A) (A) (A)
                 (A) (A) (A) (A) (A) (A) (A) (A) (A) (A) (A) (A)
                 (A) (A) (A) (A) (A) (A) (A) (A) (A) (A) (A) (A)
                 (A) (A) (A) (A) (A) (A) (A) (A) (A) (A) (A) (A)
                 (A) (A) (A) (A) (A) (A) (A) (A) (A) (A) (A) (A)
                 (A) (A) (A) (A) (A) (A) (A) (A) (A) (A) (A) (A)
                 (A) (A) (A) (A) (A) (A) (A) (A) (A) (A) (A) (A)
                 (A) (A) (A) (A) (A) (A) (A) (A) (A) (A) (A) (A)
                 (A) (A) (A) (A) (A) (A) (A) (A) (A) (A) (A) (A)
                 (A) (A) (A) (A) (A) (A) (A) (A) (A) (A) (A) (A)
                 (A) (A) (A) (A) (A) (A) (A) (A) (A) (A) (A) (A)
                 (A) (A) (A) (A) (A) (A) (A) (A) (A) (A) (A) (A)
                 (A) (A) (A) (A) (A) (A) (A) (A) (A) (A) (A) (A)
                 (A) (A) (A) (A) (A) (A) (A) (A) (A) (A) (A) (A)
                 (A) (A) (A) (A) (A) (A) (A) (A) (A) (A) (A) (A)
                 (A) (A) (A) (A) (A) (A) (A) (A) (A) (A) (A) (A)
                 (A) (A) (A) (A) (A) (A) (A) (A) (A) (A) (A) (A)
                 (A) (A) (A) (A) (A) (A) (A) (A) (A) (A) (A) (A)
                 (A) (A) (A) (A) (A) (A) (A) (A) (A) (A) (A) (A)
                 (A) (A) (A) (A) (A) (A) (A) (A) (A) (A) (A) (A)
                 (A) (A) (A) (A) (A) (A) (A) (A) (A) (A) (A) (A)
                 (A) (A) (A) (A) (A) (A) (A) (A) (A) (A) (A) (A)
                 (A) (A) (A) (A) (A) (A) (A) (A) (A) (A) (A) (A)
                 (A) (A) (A) (A) (A) (A) (A) (A) (A) (A) (A) (A)
                 (A) (A) (A) (A) (A) (A) (A) (A) (A) (A) (A) (A)
                 (A) (A) (A) (A) (A) (A) (A) (A) (A) (A) (A) (A)
                 (A) (A) (A) (A) (A) (A) (A) (A) (A) (A) (A) (A)
                 (A) (A) (A) (A) (A) (A) (A) (A) (A) (A) (A) (A)
                 (A) (A) (A) (A) (A) (A) (A) (A) (A) (A) (A) (A)
                 (A) (A) (A) (A) (A) (A) (A) (A) (A) (A) (A) (A)
                 (A) (A) (A) (A) (A) (A) (A) (A) (A) (A) (A) (A)
                 (A) (A) (A) (A) (A) (A) (A) (A) (A) (A) (A) (A)
                 (A) (A) (A) (A) (A) (A) (A) (A) (A) (A) (A) (A)
                 (A) (A) (A) (A) (A) (A) (A) (A) (A) (A) (A) (A)
                 (A) (A) (A) (A) (A) (A) (A) (A) (A) (A) (A) (A)
                 (A) (A) (A) (A) (A) (A) (A) (A) (A) (A) (A) (A)
                 (A) (A) (A) (A) (A) (A) (A) (A) (A) (A) (A) (A)
                 (A) (A) (A) (A) (A)
 Beta  Orbitals:
       Occupied  (A) (A) (A) (A) (A) (A) (A) (A) (A) (A) (A) (A)
                 (A) (A) (A) (A) (A) (A) (A) (A) (A) (A) (A) (A)
                 (A) (A) (A) (A) (A) (A) (A) (A) (A) (A) (A) (A)
                 (A) (A) (A) (A) (A) (A) (A) (A) (A) (A) (A) (A)
                 (A) (A) (A) (A) (A) (A) (A) (A) (A) (A) (A) (A)
                 (A) (A) (A) (A) (A) (A) (A) (A) (A) (A) (A) (A)
                 (A) (A) (A) (A) (A) (A) (A) (A) (A) (A) (A) (A)
                 (A) (A) (A) (A) (A) (A) (A) (A) (A) (A) (A) (A)
                 (A) (A) (A) (A) (A) (A) (A) (A) (A) (A) (A) (A)
                 (A) (A) (A) (A) (A) (A) (A) (A) (A) (A) (A) (A)
                 (A) (A) (A) (A) (A) (A) (A) (A) (A) (A) (A) (A)
                 (A) (A) (A) (A) (A) (A) (A) (A) (A) (A) (A) (A)
                 (A) (A) (A) (A) (A) (A) (A) (A) (A) (A) (A) (A)
                 (A) (A) (A) (A) (A) (A) (A) (A) (A) (A) (A) (A)
                 (A) (A) (A) (A) (A) (A) (A) (A) (A) (A) (A) (A)
                 (A) (A) (A) (A) (A) (A) (A) (A) (A) (A) (A) (A)
                 (A) (A) (A) (A) (A) (A) (A) (A) (A)
       Virtual   (A) (A) (A) (A) (A) (A) (A) (A) (A) (A) (A) (A)
                 (A) (A) (A) (A) (A) (A) (A) (A) (A) (A) (A) (A)
                 (A) (A) (A) (A) (A) (A) (A) (A) (A) (A) (A) (A)
                 (A) (A) (A) (A) (A) (A) (A) (A) (A) (A) (A) (A)
                 (A) (A) (A) (A) (A) (A) (A) (A) (A) (A) (A) (A)
                 (A) (A) (A) (A) (A) (A) (A) (A) (A) (A) (A) (A)
                 (A) (A) (A) (A) (A) (A) (A) (A) (A) (A) (A) (A)
                 (A) (A) (A) (A) (A) (A) (A) (A) (A) (A) (A) (A)
                 (A) (A) (A) (A) (A) (A) (A) (A) (A) (A) (A) (A)
                 (A) (A) (A) (A) (A) (A) (A) (A) (A) (A) (A) (A)
                 (A) (A) (A) (A) (A) (A) (A) (A) (A) (A) (A) (A)
                 (A) (A) (A) (A) (A) (A) (A) (A) (A) (A) (A) (A)
                 (A) (A) (A) (A) (A) (A) (A) (A) (A) (A) (A) (A)
                 (A) (A) (A) (A) (A) (A) (A) (A) (A) (A) (A) (A)
                 (A) (A) (A) (A) (A) (A) (A) (A) (A) (A) (A) (A)
                 (A) (A) (A) (A) (A) (A) (A) (A) (A) (A) (A) (A)
                 (A) (A) (A) (A) (A) (A) (A) (A) (A) (A) (A) (A)
                 (A) (A) (A) (A) (A) (A) (A) (A) (A) (A) (A) (A)
                 (A) (A) (A) (A) (A) (A) (A) (A) (A) (A) (A) (A)
                 (A) (A) (A) (A) (A) (A) (A) (A) (A) (A) (A) (A)
                 (A) (A) (A) (A) (A) (A) (A) (A) (A) (A) (A) (A)
                 (A) (A) (A) (A) (A) (A) (A) (A) (A) (A) (A) (A)
                 (A) (A) (A) (A) (A) (A) (A) (A) (A) (A) (A) (A)
                 (A) (A) (A) (A) (A) (A) (A) (A) (A) (A) (A) (A)
                 (A) (A) (A) (A) (A) (A) (A) (A) (A) (A) (A) (A)
                 (A) (A) (A) (A) (A) (A) (A) (A) (A) (A) (A) (A)
                 (A) (A) (A) (A) (A) (A) (A) (A) (A) (A) (A) (A)
                 (A) (A) (A) (A) (A) (A) (A) (A) (A) (A) (A) (A)
                 (A) (A) (A) (A) (A) (A) (A) (A) (A) (A) (A) (A)
                 (A) (A) (A) (A) (A) (A) (A) (A) (A) (A) (A) (A)
                 (A) (A) (A) (A) (A) (A) (A) (A) (A) (A) (A) (A)
                 (A) (A) (A) (A) (A) (A) (A) (A) (A) (A) (A) (A)
                 (A) (A) (A) (A) (A) (A) (A) (A) (A) (A) (A) (A)
                 (A) (A) (A) (A) (A) (A) (A) (A) (A) (A) (A) (A)
                 (A) (A) (A) (A) (A) (A) (A) (A) (A) (A) (A) (A)
                 (A) (A) (A) (A) (A) (A) (A) (A) (A) (A) (A) (A)
                 (A) (A) (A) (A) (A) (A) (A) (A) (A) (A) (A) (A)
                 (A) (A) (A) (A) (A) (A) (A) (A) (A) (A) (A) (A)
                 (A) (A) (A) (A) (A) (A) (A) (A) (A) (A) (A) (A)
                 (A) (A) (A) (A) (A) (A) (A) (A) (A) (A) (A) (A)
                 (A) (A) (A) (A) (A) (A) (A) (A) (A) (A) (A) (A)
                 (A) (A) (A) (A) (A) (A) (A) (A) (A) (A) (A) (A)
                 (A) (A) (A) (A) (A) (A) (A) (A) (A) (A) (A) (A)
                 (A) (A) (A) (A) (A) (A) (A) (A) (A) (A) (A) (A)
                 (A) (A) (A) (A) (A) (A) (A) (A) (A) (A) (A) (A)
                 (A) (A) (A) (A) (A) (A) (A) (A) (A) (A) (A) (A)
                 (A) (A) (A) (A) (A) (A) (A) (A) (A) (A) (A) (A)
                 (A) (A) (A) (A) (A) (A) (A) (A) (A) (A) (A) (A)
                 (A) (A) (A) (A) (A) (A) (A) (A) (A) (A) (A) (A)
                 (A) (A) (A) (A) (A) (A) (A) (A) (A) (A) (A) (A)
                 (A) (A) (A) (A) (A) (A) (A) (A) (A) (A) (A) (A)
                 (A) (A) (A) (A) (A) (A) (A) (A) (A) (A) (A) (A)
                 (A) (A) (A) (A) (A) (A) (A) (A) (A) (A) (A) (A)
                 (A) (A) (A) (A) (A) (A) (A) (A) (A) (A) (A) (A)
                 (A) (A) (A) (A) (A) (A) (A) (A) (A) (A) (A) (A)
                 (A) (A) (A) (A) (A) (A) (A) (A) (A) (A) (A) (A)
                 (A) (A) (A) (A) (A) (A) (A) (A) (A) (A) (A) (A)
                 (A) (A) (A) (A) (A) (A) (A) (A) (A) (A) (A) (A)
                 (A) (A) (A) (A) (A) (A) (A) (A) (A) (A) (A) (A)
                 (A) (A) (A) (A) (A) (A) (A) (A) (A) (A) (A) (A)
                 (A) (A) (A) (A) (A) (A) (A) (A) (A) (A) (A) (A)
                 (A) (A) (A) (A) (A) (A) (A) (A) (A) (A) (A) (A)
                 (A) (A) (A) (A) (A) (A) (A) (A) (A) (A) (A) (A)
                 (A) (A) (A) (A) (A) (A) (A) (A) (A) (A) (A) (A)
                 (A) (A) (A) (A) (A) (A) (A) (A) (A) (A) (A) (A)
                 (A) (A) (A) (A) (A) (A) (A) (A) (A) (A) (A) (A)
                 (A) (A) (A) (A) (A) (A) (A) (A) (A) (A) (A) (A)
                 (A) (A) (A) (A) (A) (A) (A) (A) (A) (A) (A) (A)
                 (A) (A) (A) (A) (A) (A) (A) (A) (A) (A) (A) (A)
                 (A) (A) (A) (A) (A) (A) (A) (A) (A) (A) (A) (A)
                 (A) (A) (A) (A) (A) (A) (A) (A) (A) (A) (A) (A)
                 (A) (A) (A) (A) (A) (A) (A) (A) (A) (A) (A) (A)
                 (A) (A) (A) (A) (A) (A) (A) (A) (A) (A) (A) (A)
                 (A) (A) (A) (A) (A) (A) (A) (A) (A) (A) (A) (A)
                 (A) (A) (A) (A) (A) (A) (A) (A) (A) (A) (A) (A)
                 (A) (A) (A) (A) (A) (A) (A) (A) (A) (A) (A) (A)
                 (A) (A) (A) (A) (A) (A) (A) (A) (A) (A) (A) (A)
                 (A) (A) (A) (A) (A) (A) (A) (A) (A) (A) (A) (A)
                 (A) (A) (A) (A) (A) (A) (A) (A) (A) (A) (A) (A)
                 (A) (A) (A) (A) (A) (A) (A) (A) (A) (A) (A) (A)
                 (A) (A) (A) (A) (A) (A) (A) (A) (A) (A) (A) (A)
                 (A) (A) (A) (A) (A) (A) (A) (A) (A) (A) (A) (A)
                 (A) (A) (A) (A) (A) (A) (A) (A) (A) (A) (A) (A)
                 (A) (A) (A) (A) (A) (A) (A) (A) (A) (A) (A) (A)
                 (A) (A) (A) (A) (A) (A) (A) (A) (A) (A) (A) (A)
                 (A) (A) (A) (A) (A) (A) (A) (A) (A) (A) (A) (A)
                 (A) (A) (A) (A) (A) (A) (A) (A) (A) (A) (A) (A)
                 (A) (A) (A) (A) (A) (A) (A) (A) (A) (A) (A) (A)
                 (A) (A) (A) (A) (A) (A) (A) (A) (A) (A) (A) (A)
                 (A) (A) (A) (A) (A) (A) (A) (A) (A) (A) (A) (A)
                 (A) (A) (A) (A) (A) (A) (A) (A) (A) (A) (A) (A)
                 (A) (A) (A) (A) (A) (A) (A) (A) (A) (A) (A) (A)
                 (A) (A) (A) (A) (A) (A) (A) (A) (A) (A) (A) (A)
                 (A) (A) (A) (A) (A) (A) (A) (A) (A) (A) (A) (A)
                 (A) (A) (A) (A) (A) (A) (A) (A) (A) (A) (A) (A)
                 (A) (A) (A) (A) (A) (A) (A) (A) (A) (A) (A) (A)
                 (A) (A) (A) (A) (A) (A) (A) (A) (A) (A) (A) (A)
                 (A) (A) (A) (A) (A) (A) (A) (A) (A) (A) (A) (A)
                 (A) (A) (A) (A) (A) (A) (A) (A) (A) (A) (A) (A)
                 (A) (A) (A) (A) (A) (A) (A) (A) (A) (A) (A) (A)
                 (A) (A) (A) (A) (A) (A) (A) (A) (A) (A) (A) (A)
                 (A) (A) (A) (A) (A) (A) (A) (A) (A) (A) (A) (A)
                 (A) (A) (A) (A) (A) (A) (A) (A) (A) (A) (A) (A)
                 (A) (A) (A) (A) (A) (A) (A) (A) (A) (A) (A) (A)
                 (A) (A) (A) (A) (A) (A) (A) (A) (A) (A) (A) (A)
                 (A) (A) (A) (A) (A) (A) (A) (A) (A) (A) (A) (A)
                 (A) (A) (A) (A) (A) (A) (A) (A) (A) (A) (A) (A)
                 (A) (A) (A) (A) (A) (A) (A) (A) (A) (A) (A) (A)
                 (A) (A) (A) (A) (A) (A) (A) (A) (A) (A) (A) (A)
                 (A) (A) (A) (A) (A) (A) (A) (A) (A) (A) (A) (A)
                 (A) (A) (A) (A) (A) (A) (A) (A) (A) (A) (A) (A)
                 (A) (A) (A) (A) (A) (A) (A) (A) (A) (A) (A) (A)
                 (A) (A) (A) (A) (A) (A) (A) (A) (A) (A) (A) (A)
                 (A) (A) (A) (A) (A) (A) (A) (A) (A) (A) (A) (A)
                 (A) (A) (A) (A) (A) (A) (A) (A) (A) (A) (A) (A)
                 (A) (A) (A) (A) (A) (A) (A) (A) (A) (A) (A) (A)
                 (A) (A) (A) (A) (A) (A) (A) (A) (A) (A) (A) (A)
                 (A) (A) (A) (A) (A) (A) (A) (A) (A) (A) (A) (A)
                 (A) (A) (A) (A) (A) (A) (A) (A) (A) (A) (A) (A)
                 (A) (A) (A) (A) (A) (A) (A) (A) (A) (A) (A) (A)
                 (A) (A) (A) (A) (A) (A) (A) (A) (A) (A) (A) (A)
                 (A) (A) (A) (A) (A) (A) (A) (A) (A) (A) (A) (A)
                 (A) (A) (A) (A) (A) (A) (A) (A) (A) (A) (A) (A)
                 (A) (A) (A) (A) (A) (A) (A) (A) (A) (A) (A) (A)
                 (A) (A) (A) (A) (A) (A) (A) (A) (A) (A) (A) (A)
                 (A) (A) (A) (A) (A) (A) (A) (A) (A) (A) (A) (A)
                 (A) (A) (A) (A) (A) (A) (A) (A) (A) (A) (A) (A)
                 (A) (A) (A) (A) (A) (A) (A) (A) (A) (A) (A) (A)
                 (A) (A) (A) (A) (A) (A) (A) (A) (A) (A) (A) (A)
                 (A) (A) (A) (A) (A) (A) (A) (A) (A) (A) (A) (A)
                 (A) (A) (A) (A) (A) (A) (A) (A) (A) (A) (A) (A)
                 (A) (A) (A) (A) (A) (A) (A) (A) (A) (A) (A) (A)
                 (A) (A) (A) (A) (A) (A) (A) (A) (A) (A) (A) (A)
                 (A) (A) (A) (A) (A) (A) (A) (A) (A) (A) (A) (A)
                 (A) (A) (A) (A) (A) (A) (A) (A) (A) (A) (A) (A)
                 (A) (A) (A) (A) (A) (A) (A) (A) (A) (A) (A) (A)
                 (A) (A) (A) (A) (A) (A) (A) (A) (A) (A) (A) (A)
                 (A) (A) (A) (A) (A) (A) (A) (A) (A) (A) (A) (A)
                 (A) (A) (A) (A) (A) (A) (A) (A) (A) (A) (A) (A)
                 (A) (A) (A) (A) (A) (A) (A) (A) (A) (A) (A) (A)
                 (A) (A) (A) (A) (A) (A) (A) (A) (A) (A) (A) (A)
                 (A) (A) (A) (A) (A) (A) (A) (A) (A) (A) (A) (A)
                 (A) (A) (A) (A) (A) (A) (A) (A) (A) (A) (A) (A)
                 (A) (A) (A) (A) (A) (A) (A) (A) (A) (A) (A) (A)
                 (A) (A) (A) (A) (A) (A) (A) (A) (A) (A)
 The electronic state is 6-A.
 Alpha  occ. eigenvalues -- -256.45176 -89.11472 -30.24594 -26.07386 -26.07191
 Alpha  occ. eigenvalues --  -26.05656 -19.34492 -19.31502 -19.26355 -19.24359
 Alpha  occ. eigenvalues --  -14.54403 -14.50193 -14.48311 -14.48186 -14.46913
 Alpha  occ. eigenvalues --  -14.46260 -10.43332 -10.41571 -10.38238 -10.37952
 Alpha  occ. eigenvalues --  -10.35882 -10.35877 -10.35402 -10.35180 -10.35083
 Alpha  occ. eigenvalues --  -10.34868 -10.34857 -10.34798 -10.34729 -10.34717
 Alpha  occ. eigenvalues --  -10.33826 -10.33782 -10.33488 -10.33459 -10.33415
 Alpha  occ. eigenvalues --  -10.32774 -10.32540 -10.32540 -10.32295 -10.32266
 Alpha  occ. eigenvalues --  -10.32173 -10.32138 -10.31214 -10.31007 -10.30960
 Alpha  occ. eigenvalues --  -10.30933 -10.30817 -10.30665 -10.30583 -10.30509
 Alpha  occ. eigenvalues --  -10.30368 -10.30250 -10.29954 -10.29702 -10.29604
 Alpha  occ. eigenvalues --  -10.29177 -10.28433  -8.09337  -6.03004  -6.02698
 Alpha  occ. eigenvalues --   -6.02147  -3.63098  -2.40998  -2.39688  -2.36153
 Alpha  occ. eigenvalues --   -1.25098  -1.22514  -1.15346  -1.11427  -1.09340
 Alpha  occ. eigenvalues --   -1.09019  -1.08454  -1.08103  -1.07197  -1.00595
 Alpha  occ. eigenvalues --   -0.94263  -0.93323  -0.92917  -0.92333  -0.92086
 Alpha  occ. eigenvalues --   -0.91666  -0.91596  -0.91073  -0.89861  -0.88380
 Alpha  occ. eigenvalues --   -0.87268  -0.86708  -0.86065  -0.85776  -0.85225
 Alpha  occ. eigenvalues --   -0.83684  -0.81857  -0.81295  -0.80976  -0.80918
 Alpha  occ. eigenvalues --   -0.78803  -0.77813  -0.76902  -0.76156  -0.75812
 Alpha  occ. eigenvalues --   -0.75706  -0.75177  -0.74358  -0.73518  -0.72596
 Alpha  occ. eigenvalues --   -0.72082  -0.71687  -0.69293  -0.69085  -0.69018
 Alpha  occ. eigenvalues --   -0.65974  -0.65663  -0.65160  -0.64835  -0.63824
 Alpha  occ. eigenvalues --   -0.62907  -0.62258  -0.62093  -0.61261  -0.59974
 Alpha  occ. eigenvalues --   -0.59442  -0.59201  -0.58590  -0.57948  -0.57796
 Alpha  occ. eigenvalues --   -0.57278  -0.56885  -0.56801  -0.56446  -0.56231
 Alpha  occ. eigenvalues --   -0.55761  -0.55598  -0.55030  -0.54877  -0.54741
 Alpha  occ. eigenvalues --   -0.54430  -0.54274  -0.53993  -0.53861  -0.53593
 Alpha  occ. eigenvalues --   -0.53367  -0.53104  -0.53007  -0.52806  -0.52651
 Alpha  occ. eigenvalues --   -0.52408  -0.52242  -0.52058  -0.51829  -0.51609
 Alpha  occ. eigenvalues --   -0.51233  -0.50899  -0.50760  -0.50467  -0.50310
 Alpha  occ. eigenvalues --   -0.50217  -0.50025  -0.49924  -0.49725  -0.49338
 Alpha  occ. eigenvalues --   -0.49076  -0.48726  -0.48343  -0.48113  -0.47654
 Alpha  occ. eigenvalues --   -0.47604  -0.47108  -0.46863  -0.46696  -0.46177
 Alpha  occ. eigenvalues --   -0.46058  -0.45741  -0.45698  -0.45219  -0.44564
 Alpha  occ. eigenvalues --   -0.44435  -0.43839  -0.43216  -0.43159  -0.43026
 Alpha  occ. eigenvalues --   -0.42347  -0.42027  -0.41486  -0.41411  -0.40856
 Alpha  occ. eigenvalues --   -0.40677  -0.40138  -0.39705  -0.39366  -0.39050
 Alpha  occ. eigenvalues --   -0.38657  -0.38011  -0.36631  -0.36435  -0.35528
 Alpha  occ. eigenvalues --   -0.34038  -0.33773  -0.33622  -0.33211  -0.32033
 Alpha  occ. eigenvalues --   -0.31855  -0.31816  -0.30008  -0.29421  -0.26758
 Alpha  occ. eigenvalues --   -0.25859
 Alpha virt. eigenvalues --   -0.21902  -0.16691  -0.16474  -0.13954  -0.10333
 Alpha virt. eigenvalues --   -0.08606  -0.07985  -0.07093  -0.05964  -0.05617
 Alpha virt. eigenvalues --   -0.05085  -0.04835  -0.04385  -0.04135  -0.03597
 Alpha virt. eigenvalues --   -0.03429  -0.02839  -0.02787  -0.02222  -0.01787
 Alpha virt. eigenvalues --   -0.01700  -0.01461  -0.01328  -0.01068  -0.00938
 Alpha virt. eigenvalues --   -0.00716  -0.00443  -0.00164   0.00136   0.00309
 Alpha virt. eigenvalues --    0.00466   0.01018   0.01310   0.01547   0.01700
 Alpha virt. eigenvalues --    0.02158   0.02486   0.02668   0.02755   0.03275
 Alpha virt. eigenvalues --    0.03435   0.03541   0.03597   0.04007   0.04281
 Alpha virt. eigenvalues --    0.04688   0.04760   0.04813   0.04987   0.05196
 Alpha virt. eigenvalues --    0.05243   0.05544   0.05701   0.05729   0.06080
 Alpha virt. eigenvalues --    0.06190   0.06493   0.06665   0.06833   0.07047
 Alpha virt. eigenvalues --    0.07316   0.07504   0.07681   0.07856   0.08031
 Alpha virt. eigenvalues --    0.08245   0.08304   0.08537   0.08666   0.09153
 Alpha virt. eigenvalues --    0.09319   0.09706   0.10012   0.10021   0.10231
 Alpha virt. eigenvalues --    0.10408   0.10612   0.10758   0.11064   0.11194
 Alpha virt. eigenvalues --    0.11544   0.11897   0.11942   0.12153   0.12394
 Alpha virt. eigenvalues --    0.12532   0.12680   0.12948   0.13104   0.13126
 Alpha virt. eigenvalues --    0.13315   0.13682   0.14165   0.14265   0.14329
 Alpha virt. eigenvalues --    0.14627   0.14915   0.15095   0.15191   0.15370
 Alpha virt. eigenvalues --    0.15596   0.15896   0.16052   0.16256   0.16303
 Alpha virt. eigenvalues --    0.16432   0.16543   0.16878   0.17235   0.17247
 Alpha virt. eigenvalues --    0.17532   0.17754   0.18012   0.18255   0.18555
 Alpha virt. eigenvalues --    0.18811   0.18974   0.19045   0.19384   0.19436
 Alpha virt. eigenvalues --    0.19642   0.19819   0.20005   0.20322   0.20624
 Alpha virt. eigenvalues --    0.20839   0.20990   0.21442   0.21462   0.21775
 Alpha virt. eigenvalues --    0.21846   0.22299   0.22336   0.22487   0.22774
 Alpha virt. eigenvalues --    0.23032   0.23215   0.23461   0.23624   0.23881
 Alpha virt. eigenvalues --    0.23952   0.24127   0.24234   0.24561   0.24691
 Alpha virt. eigenvalues --    0.25089   0.25352   0.25477   0.25877   0.26004
 Alpha virt. eigenvalues --    0.26239   0.26370   0.26539   0.26833   0.27273
 Alpha virt. eigenvalues --    0.27535   0.27867   0.27949   0.28105   0.28405
 Alpha virt. eigenvalues --    0.28520   0.28682   0.28797   0.29113   0.29282
 Alpha virt. eigenvalues --    0.29518   0.29844   0.29972   0.30146   0.30409
 Alpha virt. eigenvalues --    0.30700   0.30949   0.31063   0.31254   0.31299
 Alpha virt. eigenvalues --    0.31457   0.31509   0.31815   0.32047   0.32242
 Alpha virt. eigenvalues --    0.32541   0.32620   0.32927   0.33062   0.33310
 Alpha virt. eigenvalues --    0.33357   0.33717   0.33723   0.33867   0.34103
 Alpha virt. eigenvalues --    0.34520   0.34685   0.34746   0.34873   0.35070
 Alpha virt. eigenvalues --    0.35179   0.35401   0.35516   0.35903   0.35982
 Alpha virt. eigenvalues --    0.36251   0.36344   0.36427   0.36564   0.36787
 Alpha virt. eigenvalues --    0.36884   0.37106   0.37316   0.37367   0.37515
 Alpha virt. eigenvalues --    0.37794   0.38017   0.38094   0.38280   0.38533
 Alpha virt. eigenvalues --    0.38695   0.38820   0.39124   0.39344   0.39494
 Alpha virt. eigenvalues --    0.39660   0.39794   0.39956   0.40131   0.40246
 Alpha virt. eigenvalues --    0.40384   0.40571   0.40704   0.40862   0.41119
 Alpha virt. eigenvalues --    0.41239   0.41465   0.41640   0.42034   0.42050
 Alpha virt. eigenvalues --    0.42241   0.42456   0.42543   0.42736   0.43007
 Alpha virt. eigenvalues --    0.43175   0.43261   0.43506   0.43610   0.43840
 Alpha virt. eigenvalues --    0.43953   0.44018   0.44228   0.44365   0.44621
 Alpha virt. eigenvalues --    0.44810   0.45222   0.45374   0.45602   0.45723
 Alpha virt. eigenvalues --    0.45964   0.46217   0.46405   0.46681   0.46790
 Alpha virt. eigenvalues --    0.46971   0.47052   0.47237   0.47651   0.47753
 Alpha virt. eigenvalues --    0.48118   0.48193   0.48518   0.48660   0.48919
 Alpha virt. eigenvalues --    0.49227   0.49489   0.49676   0.49863   0.50127
 Alpha virt. eigenvalues --    0.50195   0.50379   0.50595   0.50806   0.50954
 Alpha virt. eigenvalues --    0.51235   0.51516   0.51672   0.51834   0.52247
 Alpha virt. eigenvalues --    0.52562   0.52670   0.53170   0.53233   0.53313
 Alpha virt. eigenvalues --    0.53466   0.53944   0.54129   0.54341   0.54414
 Alpha virt. eigenvalues --    0.54719   0.55132   0.55351   0.55853   0.55958
 Alpha virt. eigenvalues --    0.56142   0.56178   0.56560   0.56850   0.57078
 Alpha virt. eigenvalues --    0.57517   0.57707   0.57883   0.58314   0.58519
 Alpha virt. eigenvalues --    0.58710   0.58855   0.59276   0.59458   0.59788
 Alpha virt. eigenvalues --    0.60249   0.60502   0.60712   0.60838   0.61093
 Alpha virt. eigenvalues --    0.61534   0.61714   0.61800   0.61903   0.62099
 Alpha virt. eigenvalues --    0.62610   0.62781   0.62965   0.63657   0.63724
 Alpha virt. eigenvalues --    0.64048   0.64255   0.64369   0.64590   0.65362
 Alpha virt. eigenvalues --    0.65522   0.65631   0.65799   0.66185   0.66416
 Alpha virt. eigenvalues --    0.66703   0.66894   0.67126   0.67489   0.68079
 Alpha virt. eigenvalues --    0.68424   0.68672   0.69118   0.69292   0.69421
 Alpha virt. eigenvalues --    0.69584   0.69911   0.70107   0.70142   0.70550
 Alpha virt. eigenvalues --    0.70816   0.71309   0.71460   0.71606   0.72055
 Alpha virt. eigenvalues --    0.72253   0.72513   0.72953   0.73390   0.73554
 Alpha virt. eigenvalues --    0.73802   0.73952   0.74290   0.74663   0.74862
 Alpha virt. eigenvalues --    0.75096   0.75345   0.75665   0.76080   0.76230
 Alpha virt. eigenvalues --    0.76444   0.76870   0.77469   0.77650   0.77979
 Alpha virt. eigenvalues --    0.78370   0.78478   0.78764   0.79136   0.79254
 Alpha virt. eigenvalues --    0.79539   0.79662   0.80108   0.80366   0.80847
 Alpha virt. eigenvalues --    0.81044   0.81247   0.81323   0.81444   0.82030
 Alpha virt. eigenvalues --    0.82406   0.82629   0.82859   0.82965   0.83095
 Alpha virt. eigenvalues --    0.83501   0.84015   0.84132   0.84235   0.84370
 Alpha virt. eigenvalues --    0.84721   0.84993   0.85359   0.85726   0.86186
 Alpha virt. eigenvalues --    0.86452   0.86548   0.87245   0.87334   0.87585
 Alpha virt. eigenvalues --    0.87770   0.87915   0.87947   0.88420   0.88750
 Alpha virt. eigenvalues --    0.89088   0.89258   0.89567   0.89983   0.90090
 Alpha virt. eigenvalues --    0.90190   0.90492   0.90758   0.91206   0.91668
 Alpha virt. eigenvalues --    0.91812   0.91952   0.92480   0.92962   0.93142
 Alpha virt. eigenvalues --    0.93501   0.93684   0.93968   0.94248   0.94314
 Alpha virt. eigenvalues --    0.94738   0.94975   0.95282   0.95456   0.95530
 Alpha virt. eigenvalues --    0.95990   0.96174   0.96644   0.96891   0.97005
 Alpha virt. eigenvalues --    0.97352   0.97602   0.97983   0.98157   0.98525
 Alpha virt. eigenvalues --    0.98885   0.98956   0.99378   0.99674   0.99998
 Alpha virt. eigenvalues --    1.00062   1.00454   1.00954   1.01196   1.01385
 Alpha virt. eigenvalues --    1.01605   1.01988   1.02420   1.02593   1.02912
 Alpha virt. eigenvalues --    1.03292   1.03713   1.03856   1.04045   1.04219
 Alpha virt. eigenvalues --    1.04799   1.05378   1.05498   1.05607   1.05827
 Alpha virt. eigenvalues --    1.06647   1.06946   1.07319   1.07486   1.07632
 Alpha virt. eigenvalues --    1.08503   1.08930   1.09094   1.09192   1.09355
 Alpha virt. eigenvalues --    1.09606   1.10300   1.10506   1.10805   1.11028
 Alpha virt. eigenvalues --    1.11298   1.11530   1.11940   1.12148   1.12349
 Alpha virt. eigenvalues --    1.12807   1.12866   1.13620   1.14196   1.14638
 Alpha virt. eigenvalues --    1.14851   1.15216   1.15575   1.15849   1.16094
 Alpha virt. eigenvalues --    1.16571   1.16970   1.17078   1.17437   1.17505
 Alpha virt. eigenvalues --    1.17751   1.18382   1.18398   1.18596   1.18956
 Alpha virt. eigenvalues --    1.19545   1.20030   1.20436   1.21224   1.21323
 Alpha virt. eigenvalues --    1.21692   1.21758   1.22323   1.22358   1.22829
 Alpha virt. eigenvalues --    1.23062   1.23245   1.23723   1.23969   1.24255
 Alpha virt. eigenvalues --    1.24517   1.25031   1.25509   1.25982   1.26397
 Alpha virt. eigenvalues --    1.26675   1.27016   1.27500   1.27786   1.28347
 Alpha virt. eigenvalues --    1.28512   1.28981   1.29637   1.29978   1.30371
 Alpha virt. eigenvalues --    1.30652   1.30833   1.31256   1.31810   1.31863
 Alpha virt. eigenvalues --    1.32632   1.32856   1.32983   1.33480   1.33902
 Alpha virt. eigenvalues --    1.34167   1.34381   1.34681   1.35104   1.35314
 Alpha virt. eigenvalues --    1.35852   1.36628   1.36884   1.37540   1.37796
 Alpha virt. eigenvalues --    1.38051   1.38369   1.38642   1.39161   1.39298
 Alpha virt. eigenvalues --    1.39409   1.39649   1.39967   1.40311   1.40651
 Alpha virt. eigenvalues --    1.41387   1.41475   1.41658   1.41963   1.42385
 Alpha virt. eigenvalues --    1.42836   1.43171   1.43441   1.43607   1.43839
 Alpha virt. eigenvalues --    1.44341   1.44655   1.44857   1.45112   1.45643
 Alpha virt. eigenvalues --    1.46000   1.46376   1.46416   1.46748   1.46857
 Alpha virt. eigenvalues --    1.47127   1.47307   1.47748   1.48196   1.48316
 Alpha virt. eigenvalues --    1.48409   1.48846   1.49087   1.49269   1.49531
 Alpha virt. eigenvalues --    1.49822   1.50029   1.50251   1.50570   1.50898
 Alpha virt. eigenvalues --    1.51025   1.51205   1.51455   1.51731   1.52219
 Alpha virt. eigenvalues --    1.52392   1.52417   1.52812   1.53015   1.53171
 Alpha virt. eigenvalues --    1.53522   1.53636   1.54070   1.54154   1.54298
 Alpha virt. eigenvalues --    1.54467   1.54730   1.55012   1.55366   1.55530
 Alpha virt. eigenvalues --    1.55977   1.56091   1.56256   1.56633   1.56773
 Alpha virt. eigenvalues --    1.56975   1.57167   1.57662   1.57879   1.58261
 Alpha virt. eigenvalues --    1.58737   1.58831   1.59173   1.59297   1.59478
 Alpha virt. eigenvalues --    1.59786   1.60329   1.60548   1.60849   1.60996
 Alpha virt. eigenvalues --    1.61461   1.61614   1.61823   1.62167   1.62600
 Alpha virt. eigenvalues --    1.62753   1.63054   1.63370   1.63678   1.63977
 Alpha virt. eigenvalues --    1.64305   1.64423   1.64757   1.65326   1.65620
 Alpha virt. eigenvalues --    1.66161   1.66335   1.66681   1.66832   1.67176
 Alpha virt. eigenvalues --    1.67376   1.67595   1.67686   1.68398   1.68835
 Alpha virt. eigenvalues --    1.69434   1.69505   1.69876   1.70100   1.70490
 Alpha virt. eigenvalues --    1.71054   1.71242   1.71843   1.72160   1.72463
 Alpha virt. eigenvalues --    1.72723   1.73088   1.73525   1.73826   1.74198
 Alpha virt. eigenvalues --    1.74461   1.74902   1.75191   1.75375   1.75946
 Alpha virt. eigenvalues --    1.76074   1.76310   1.76738   1.76969   1.77187
 Alpha virt. eigenvalues --    1.77617   1.77873   1.78024   1.78196   1.78708
 Alpha virt. eigenvalues --    1.78830   1.79158   1.79642   1.80113   1.80562
 Alpha virt. eigenvalues --    1.80769   1.80865   1.81103   1.81702   1.82126
 Alpha virt. eigenvalues --    1.82285   1.82644   1.82831   1.82984   1.83764
 Alpha virt. eigenvalues --    1.83896   1.84093   1.84655   1.84878   1.85429
 Alpha virt. eigenvalues --    1.86249   1.86437   1.86583   1.86788   1.87109
 Alpha virt. eigenvalues --    1.87243   1.87896   1.88092   1.88612   1.88654
 Alpha virt. eigenvalues --    1.89022   1.89474   1.89709   1.89986   1.90578
 Alpha virt. eigenvalues --    1.90953   1.91420   1.91659   1.91906   1.92176
 Alpha virt. eigenvalues --    1.92596   1.92891   1.93478   1.93596   1.93982
 Alpha virt. eigenvalues --    1.94220   1.94577   1.94735   1.94938   1.95292
 Alpha virt. eigenvalues --    1.95662   1.95978   1.96545   1.96635   1.96953
 Alpha virt. eigenvalues --    1.97464   1.97638   1.97857   1.97956   1.98695
 Alpha virt. eigenvalues --    1.98925   1.99240   1.99664   2.00143   2.00558
 Alpha virt. eigenvalues --    2.00660   2.01024   2.01201   2.01668   2.01890
 Alpha virt. eigenvalues --    2.02039   2.02341   2.03176   2.03501   2.03695
 Alpha virt. eigenvalues --    2.04114   2.04516   2.04715   2.05056   2.05402
 Alpha virt. eigenvalues --    2.05973   2.06249   2.06533   2.06785   2.07032
 Alpha virt. eigenvalues --    2.07186   2.07613   2.08067   2.08285   2.08572
 Alpha virt. eigenvalues --    2.09003   2.09600   2.09826   2.10436   2.10720
 Alpha virt. eigenvalues --    2.10842   2.11487   2.11807   2.12385   2.12581
 Alpha virt. eigenvalues --    2.12824   2.13180   2.13739   2.14186   2.14322
 Alpha virt. eigenvalues --    2.14534   2.14756   2.15479   2.15557   2.15962
 Alpha virt. eigenvalues --    2.16379   2.16535   2.16795   2.17036   2.17270
 Alpha virt. eigenvalues --    2.17856   2.18559   2.18675   2.19168   2.19570
 Alpha virt. eigenvalues --    2.19696   2.20272   2.20439   2.20670   2.21305
 Alpha virt. eigenvalues --    2.21442   2.21678   2.22094   2.22606   2.22922
 Alpha virt. eigenvalues --    2.23261   2.24082   2.24284   2.24613   2.24988
 Alpha virt. eigenvalues --    2.25535   2.25889   2.25943   2.26329   2.26833
 Alpha virt. eigenvalues --    2.26925   2.27277   2.27918   2.28198   2.28655
 Alpha virt. eigenvalues --    2.29004   2.29444   2.29891   2.29968   2.30262
 Alpha virt. eigenvalues --    2.30723   2.30991   2.31219   2.31686   2.31863
 Alpha virt. eigenvalues --    2.32146   2.33081   2.33418   2.33489   2.33705
 Alpha virt. eigenvalues --    2.34221   2.34547   2.34631   2.34960   2.35506
 Alpha virt. eigenvalues --    2.36217   2.36345   2.36765   2.37135   2.37384
 Alpha virt. eigenvalues --    2.37794   2.38042   2.38319   2.38553   2.39140
 Alpha virt. eigenvalues --    2.39586   2.39752   2.39975   2.40330   2.40713
 Alpha virt. eigenvalues --    2.40887   2.41614   2.41729   2.42136   2.42519
 Alpha virt. eigenvalues --    2.42745   2.43711   2.43901   2.44276   2.44753
 Alpha virt. eigenvalues --    2.45097   2.45216   2.45501   2.45679   2.46009
 Alpha virt. eigenvalues --    2.46370   2.47004   2.47126   2.47488   2.48050
 Alpha virt. eigenvalues --    2.48214   2.48498   2.48657   2.48890   2.49178
 Alpha virt. eigenvalues --    2.49692   2.49897   2.50124   2.50275   2.50590
 Alpha virt. eigenvalues --    2.50861   2.50908   2.51445   2.51677   2.51845
 Alpha virt. eigenvalues --    2.52001   2.52319   2.52767   2.53033   2.53302
 Alpha virt. eigenvalues --    2.53549   2.53867   2.54442   2.54647   2.55126
 Alpha virt. eigenvalues --    2.55364   2.55652   2.55796   2.55993   2.56343
 Alpha virt. eigenvalues --    2.56713   2.56892   2.57372   2.57567   2.58066
 Alpha virt. eigenvalues --    2.58263   2.58506   2.58989   2.59473   2.59686
 Alpha virt. eigenvalues --    2.59842   2.60070   2.60272   2.60431   2.60931
 Alpha virt. eigenvalues --    2.61169   2.61514   2.62087   2.62271   2.62413
 Alpha virt. eigenvalues --    2.62725   2.63321   2.63356   2.63873   2.64142
 Alpha virt. eigenvalues --    2.64399   2.64458   2.64874   2.65073   2.65861
 Alpha virt. eigenvalues --    2.65972   2.66131   2.66586   2.66645   2.67069
 Alpha virt. eigenvalues --    2.67176   2.67292   2.67660   2.67939   2.68575
 Alpha virt. eigenvalues --    2.68924   2.69238   2.69462   2.69902   2.70383
 Alpha virt. eigenvalues --    2.70887   2.71292   2.71413   2.72091   2.72246
 Alpha virt. eigenvalues --    2.72370   2.72875   2.73392   2.73679   2.73837
 Alpha virt. eigenvalues --    2.74242   2.74729   2.74873   2.75027   2.75599
 Alpha virt. eigenvalues --    2.75901   2.76455   2.76832   2.77344   2.77700
 Alpha virt. eigenvalues --    2.77932   2.78209   2.78265   2.78837   2.79017
 Alpha virt. eigenvalues --    2.79521   2.79797   2.80087   2.80339   2.80727
 Alpha virt. eigenvalues --    2.81067   2.81514   2.82208   2.82612   2.82893
 Alpha virt. eigenvalues --    2.83397   2.83471   2.83890   2.83915   2.84361
 Alpha virt. eigenvalues --    2.84790   2.84976   2.85625   2.85954   2.86638
 Alpha virt. eigenvalues --    2.86666   2.87034   2.87216   2.87601   2.87712
 Alpha virt. eigenvalues --    2.88098   2.88497   2.88539   2.88811   2.88876
 Alpha virt. eigenvalues --    2.89290   2.89824   2.90113   2.90342   2.90747
 Alpha virt. eigenvalues --    2.90927   2.91097   2.91405   2.91720   2.91799
 Alpha virt. eigenvalues --    2.92048   2.92240   2.92609   2.92775   2.93224
 Alpha virt. eigenvalues --    2.93587   2.93950   2.94275   2.94564   2.94800
 Alpha virt. eigenvalues --    2.95135   2.95440   2.95866   2.96003   2.96563
 Alpha virt. eigenvalues --    2.96843   2.96945   2.97213   2.97412   2.98229
 Alpha virt. eigenvalues --    2.98371   2.98586   2.98831   2.98973   2.99255
 Alpha virt. eigenvalues --    2.99603   2.99888   3.00291   3.00640   3.01028
 Alpha virt. eigenvalues --    3.01088   3.01193   3.01289   3.01434   3.01806
 Alpha virt. eigenvalues --    3.01865   3.02474   3.02784   3.03042   3.03313
 Alpha virt. eigenvalues --    3.03567   3.03749   3.04172   3.04320   3.04471
 Alpha virt. eigenvalues --    3.04720   3.04840   3.05258   3.05344   3.05576
 Alpha virt. eigenvalues --    3.05804   3.06091   3.06227   3.06496   3.06948
 Alpha virt. eigenvalues --    3.07185   3.07446   3.07918   3.08139   3.08541
 Alpha virt. eigenvalues --    3.08884   3.09001   3.09049   3.09428   3.09681
 Alpha virt. eigenvalues --    3.09954   3.10279   3.10358   3.10768   3.10992
 Alpha virt. eigenvalues --    3.11348   3.11639   3.11753   3.12242   3.12420
 Alpha virt. eigenvalues --    3.12557   3.12864   3.13211   3.13512   3.13838
 Alpha virt. eigenvalues --    3.13951   3.14204   3.14518   3.14656   3.15201
 Alpha virt. eigenvalues --    3.15403   3.15565   3.15898   3.16027   3.16687
 Alpha virt. eigenvalues --    3.16800   3.16894   3.17360   3.17502   3.17834
 Alpha virt. eigenvalues --    3.17902   3.18270   3.18553   3.18796   3.18970
 Alpha virt. eigenvalues --    3.19239   3.19636   3.19991   3.20132   3.20568
 Alpha virt. eigenvalues --    3.20622   3.20694   3.21108   3.21355   3.21513
 Alpha virt. eigenvalues --    3.22072   3.22337   3.22608   3.22852   3.23132
 Alpha virt. eigenvalues --    3.23486   3.23939   3.24001   3.24415   3.24513
 Alpha virt. eigenvalues --    3.24847   3.24947   3.25146   3.25257   3.25663
 Alpha virt. eigenvalues --    3.25954   3.26150   3.26501   3.26730   3.26817
 Alpha virt. eigenvalues --    3.26941   3.27090   3.27610   3.27760   3.27995
 Alpha virt. eigenvalues --    3.28472   3.28735   3.28749   3.29119   3.29284
 Alpha virt. eigenvalues --    3.29512   3.29945   3.29966   3.30716   3.30956
 Alpha virt. eigenvalues --    3.31097   3.31178   3.31462   3.31596   3.31991
 Alpha virt. eigenvalues --    3.32404   3.32501   3.32976   3.33214   3.33335
 Alpha virt. eigenvalues --    3.33589   3.33784   3.34042   3.34428   3.34500
 Alpha virt. eigenvalues --    3.34896   3.35359   3.35481   3.35621   3.36101
 Alpha virt. eigenvalues --    3.36139   3.36454   3.36811   3.36963   3.37257
 Alpha virt. eigenvalues --    3.37792   3.38162   3.38326   3.38553   3.38755
 Alpha virt. eigenvalues --    3.39073   3.39608   3.39795   3.40231   3.40479
 Alpha virt. eigenvalues --    3.40718   3.41017   3.41296   3.41365   3.41632
 Alpha virt. eigenvalues --    3.42140   3.42563   3.42889   3.43060   3.43325
 Alpha virt. eigenvalues --    3.43553   3.43631   3.44112   3.44622   3.44859
 Alpha virt. eigenvalues --    3.45036   3.45296   3.45670   3.46264   3.46597
 Alpha virt. eigenvalues --    3.47078   3.47472   3.47596   3.47876   3.48218
 Alpha virt. eigenvalues --    3.48262   3.48496   3.49025   3.49186   3.49458
 Alpha virt. eigenvalues --    3.49820   3.50106   3.50815   3.51146   3.51785
 Alpha virt. eigenvalues --    3.52022   3.52213   3.52666   3.52792   3.53216
 Alpha virt. eigenvalues --    3.53403   3.53815   3.54446   3.54744   3.55122
 Alpha virt. eigenvalues --    3.55542   3.55869   3.56250   3.56632   3.56936
 Alpha virt. eigenvalues --    3.57341   3.57467   3.57878   3.58534   3.58554
 Alpha virt. eigenvalues --    3.58986   3.59163   3.59764   3.59951   3.60094
 Alpha virt. eigenvalues --    3.60507   3.60775   3.61284   3.61506   3.62068
 Alpha virt. eigenvalues --    3.62293   3.62581   3.62936   3.63307   3.63732
 Alpha virt. eigenvalues --    3.64553   3.64594   3.65124   3.65466   3.65776
 Alpha virt. eigenvalues --    3.66083   3.66355   3.66591   3.67035   3.67484
 Alpha virt. eigenvalues --    3.67949   3.68721   3.69085   3.69714   3.69955
 Alpha virt. eigenvalues --    3.70374   3.70864   3.71388   3.71609   3.71932
 Alpha virt. eigenvalues --    3.72432   3.72521   3.74004   3.74314   3.74619
 Alpha virt. eigenvalues --    3.74832   3.75181   3.75944   3.76614   3.76785
 Alpha virt. eigenvalues --    3.77582   3.77933   3.77995   3.78085   3.78729
 Alpha virt. eigenvalues --    3.79473   3.79648   3.80073   3.80270   3.80657
 Alpha virt. eigenvalues --    3.81376   3.82103   3.82409   3.82844   3.83010
 Alpha virt. eigenvalues --    3.83290   3.83929   3.84895   3.85363   3.85471
 Alpha virt. eigenvalues --    3.86220   3.86376   3.87319   3.87571   3.88028
 Alpha virt. eigenvalues --    3.88221   3.88875   3.89192   3.89671   3.90149
 Alpha virt. eigenvalues --    3.90430   3.90922   3.91616   3.91952   3.92439
 Alpha virt. eigenvalues --    3.92640   3.93624   3.94088   3.94363   3.94697
 Alpha virt. eigenvalues --    3.95565   3.96112   3.96443   3.97257   3.97593
 Alpha virt. eigenvalues --    3.97736   3.97964   3.98790   3.98912   3.99893
 Alpha virt. eigenvalues --    4.00075   4.00608   4.00853   4.01094   4.01890
 Alpha virt. eigenvalues --    4.02321   4.02806   4.02845   4.03162   4.03412
 Alpha virt. eigenvalues --    4.04571   4.04763   4.05203   4.05234   4.05987
 Alpha virt. eigenvalues --    4.06391   4.06501   4.06968   4.08143   4.08950
 Alpha virt. eigenvalues --    4.09141   4.09513   4.10037   4.10128   4.10388
 Alpha virt. eigenvalues --    4.10935   4.11769   4.12680   4.13392   4.14027
 Alpha virt. eigenvalues --    4.14431   4.15233   4.15529   4.15724   4.16410
 Alpha virt. eigenvalues --    4.16617   4.17940   4.18231   4.18469   4.18841
 Alpha virt. eigenvalues --    4.18990   4.19985   4.20345   4.20569   4.21049
 Alpha virt. eigenvalues --    4.21328   4.21621   4.22046   4.22232   4.22807
 Alpha virt. eigenvalues --    4.23164   4.23818   4.24462   4.25364   4.25945
 Alpha virt. eigenvalues --    4.26490   4.26755   4.27135   4.27691   4.28484
 Alpha virt. eigenvalues --    4.28680   4.29330   4.29836   4.30272   4.30844
 Alpha virt. eigenvalues --    4.30886   4.31370   4.31560   4.32055   4.32660
 Alpha virt. eigenvalues --    4.32848   4.33561   4.33776   4.34759   4.34924
 Alpha virt. eigenvalues --    4.35092   4.36120   4.36373   4.36830   4.38079
 Alpha virt. eigenvalues --    4.38410   4.38729   4.39838   4.40589   4.41461
 Alpha virt. eigenvalues --    4.41683   4.42775   4.43111   4.43607   4.43703
 Alpha virt. eigenvalues --    4.44378   4.45317   4.46180   4.46776   4.47107
 Alpha virt. eigenvalues --    4.47872   4.48095   4.49364   4.49716   4.49828
 Alpha virt. eigenvalues --    4.50533   4.51348   4.51920   4.52011   4.52699
 Alpha virt. eigenvalues --    4.53311   4.53766   4.54780   4.55460   4.56091
 Alpha virt. eigenvalues --    4.56659   4.57014   4.57578   4.58899   4.59805
 Alpha virt. eigenvalues --    4.60796   4.61210   4.62359   4.62543   4.63575
 Alpha virt. eigenvalues --    4.63606   4.64125   4.65045   4.65185   4.66682
 Alpha virt. eigenvalues --    4.67348   4.68332   4.69139   4.69231   4.70160
 Alpha virt. eigenvalues --    4.70457   4.71983   4.72377   4.72916   4.73524
 Alpha virt. eigenvalues --    4.74731   4.75108   4.75659   4.76342   4.76689
 Alpha virt. eigenvalues --    4.78089   4.78614   4.78863   4.79962   4.80382
 Alpha virt. eigenvalues --    4.80851   4.81879   4.82401   4.82465   4.83581
 Alpha virt. eigenvalues --    4.83853   4.85012   4.85734   4.86045   4.87008
 Alpha virt. eigenvalues --    4.87183   4.88593   4.89233   4.90099   4.91003
 Alpha virt. eigenvalues --    4.92096   4.92240   4.92722   4.92818   4.93786
 Alpha virt. eigenvalues --    4.94423   4.96421   4.96631   4.96765   4.97755
 Alpha virt. eigenvalues --    4.98179   4.98933   4.99507   5.01327   5.02254
 Alpha virt. eigenvalues --    5.03495   5.04869   5.05862   5.06890   5.10060
 Alpha virt. eigenvalues --    5.10524   5.11007   5.11862   5.12247   5.13714
 Alpha virt. eigenvalues --    5.14049   5.14325   5.14811   5.15273   5.15518
 Alpha virt. eigenvalues --    5.16600   5.16900   5.17629   5.17851   5.18020
 Alpha virt. eigenvalues --    5.18615   5.19655   5.20898   5.21469   5.22039
 Alpha virt. eigenvalues --    5.22677   5.24609   5.25545   5.27305   5.28613
 Alpha virt. eigenvalues --    5.29428   5.30857   5.31389   5.32266   5.33546
 Alpha virt. eigenvalues --    5.34122   5.34897   5.35265   5.37115   5.38551
 Alpha virt. eigenvalues --    5.38917   5.39410   5.40491   5.41947   5.42827
 Alpha virt. eigenvalues --    5.43829   5.46233   5.46991   5.47398   5.49461
 Alpha virt. eigenvalues --    5.50075   5.50372   5.51076   5.53674   5.54206
 Alpha virt. eigenvalues --    5.55572   5.55887   5.57572   5.58124   5.58242
 Alpha virt. eigenvalues --    5.60015   5.60565   5.61854   5.65234   5.65932
 Alpha virt. eigenvalues --    5.67744   5.68697   5.71210   5.74329   5.74409
 Alpha virt. eigenvalues --    5.75924   5.79377   5.83206   5.85752   5.86458
 Alpha virt. eigenvalues --    5.87499   5.90346   5.90933   5.91842   5.93026
 Alpha virt. eigenvalues --    5.94941   5.96423   5.98097   6.00926   6.01408
 Alpha virt. eigenvalues --    6.02181   6.03769   6.04190   6.04326   6.06704
 Alpha virt. eigenvalues --    6.08575   6.10782   6.13813   6.15250   6.22919
 Alpha virt. eigenvalues --    6.25942   6.26464   6.27331   6.32192   6.32593
 Alpha virt. eigenvalues --    6.35601   6.37012   6.37337   6.40208   6.42173
 Alpha virt. eigenvalues --    6.42383   6.42769   6.59303   6.60271   6.66639
 Alpha virt. eigenvalues --    6.69817   6.80045   6.80915   6.86771   6.88418
 Alpha virt. eigenvalues --    6.96504   7.00737   7.05740   7.06666   7.13628
 Alpha virt. eigenvalues --    7.15589   7.20191   7.20517   9.14091   9.42912
 Alpha virt. eigenvalues --    9.59316  20.13564  22.09248  22.16862  22.29009
 Alpha virt. eigenvalues --   22.32075  22.34340  22.42384  22.45103  22.47125
 Alpha virt. eigenvalues --   22.47781  22.49571  22.49994  22.51989  22.53939
 Alpha virt. eigenvalues --   22.57480  22.63495  22.68580  22.72005  22.82582
 Alpha virt. eigenvalues --   22.83599  22.86957  22.87864  22.91632  22.95196
 Alpha virt. eigenvalues --   22.98012  23.04423  23.16045  23.17500  23.21616
 Alpha virt. eigenvalues --   23.22438  23.25078  23.32577  23.35135  23.39451
 Alpha virt. eigenvalues --   23.45462  23.49750  23.53090  23.56943  23.58201
 Alpha virt. eigenvalues --   23.66693  23.71428  23.80170  32.36307  32.65040
 Alpha virt. eigenvalues --   32.94044  32.98590  33.02847  33.09919  43.89830
 Alpha virt. eigenvalues --   43.90930  43.93427  44.01662
  Beta  occ. eigenvalues -- -256.45105 -89.11495 -30.19893 -26.03488 -26.03199
  Beta  occ. eigenvalues --  -26.01699 -19.34492 -19.31502 -19.26354 -19.24359
  Beta  occ. eigenvalues --  -14.54408 -14.50241 -14.48105 -14.47971 -14.46949
  Beta  occ. eigenvalues --  -14.46006 -10.43332 -10.41571 -10.38247 -10.37845
  Beta  occ. eigenvalues --  -10.35928 -10.35876 -10.35571 -10.35276 -10.35132
  Beta  occ. eigenvalues --  -10.34894 -10.34753 -10.34634 -10.33871 -10.33837
  Beta  occ. eigenvalues --  -10.33549 -10.33519 -10.33495 -10.33463 -10.33398
  Beta  occ. eigenvalues --  -10.32779 -10.32737 -10.32566 -10.32158 -10.32022
  Beta  occ. eigenvalues --  -10.31791 -10.31215 -10.31009 -10.30985 -10.30972
  Beta  occ. eigenvalues --  -10.30817 -10.30681 -10.30672 -10.30595 -10.30447
  Beta  occ. eigenvalues --  -10.30345 -10.30250 -10.29952 -10.29700 -10.29600
  Beta  occ. eigenvalues --  -10.29174 -10.28433  -8.09358  -6.03018  -6.02737
  Beta  occ. eigenvalues --   -6.02201  -3.51782  -2.28665  -2.27771  -2.23917
  Beta  occ. eigenvalues --   -1.25098  -1.22514  -1.15367  -1.11427  -1.09118
  Beta  occ. eigenvalues --   -1.09018  -1.08239  -1.08003  -1.07104  -1.00642
  Beta  occ. eigenvalues --   -0.94270  -0.93101  -0.92403  -0.92266  -0.92040
  Beta  occ. eigenvalues --   -0.91534  -0.91023  -0.90565  -0.89867  -0.88344
  Beta  occ. eigenvalues --   -0.87032  -0.86019  -0.85761  -0.85249  -0.83973
  Beta  occ. eigenvalues --   -0.82269  -0.81307  -0.81224  -0.80930  -0.79678
  Beta  occ. eigenvalues --   -0.78733  -0.77825  -0.76862  -0.76112  -0.75835
  Beta  occ. eigenvalues --   -0.75650  -0.75144  -0.74372  -0.72522  -0.71724
  Beta  occ. eigenvalues --   -0.71671  -0.69604  -0.69215  -0.69074  -0.68865
  Beta  occ. eigenvalues --   -0.65715  -0.65595  -0.64925  -0.64359  -0.63562
  Beta  occ. eigenvalues --   -0.62736  -0.62082  -0.61883  -0.61198  -0.59757
  Beta  occ. eigenvalues --   -0.59342  -0.58954  -0.58418  -0.57917  -0.57586
  Beta  occ. eigenvalues --   -0.57258  -0.56793  -0.56770  -0.56244  -0.55862
  Beta  occ. eigenvalues --   -0.55590  -0.55135  -0.54870  -0.54666  -0.54395
  Beta  occ. eigenvalues --   -0.54217  -0.54071  -0.53728  -0.53419  -0.53245
  Beta  occ. eigenvalues --   -0.53115  -0.52828  -0.52621  -0.52579  -0.52196
  Beta  occ. eigenvalues --   -0.52157  -0.51929  -0.51901  -0.51659  -0.51243
  Beta  occ. eigenvalues --   -0.51132  -0.50804  -0.50496  -0.50308  -0.50050
  Beta  occ. eigenvalues --   -0.49906  -0.49723  -0.49675  -0.49318  -0.49220
  Beta  occ. eigenvalues --   -0.48736  -0.48131  -0.48120  -0.47482  -0.47367
  Beta  occ. eigenvalues --   -0.47000  -0.46893  -0.46597  -0.46235  -0.46002
  Beta  occ. eigenvalues --   -0.45747  -0.45551  -0.45250  -0.44567  -0.44245
  Beta  occ. eigenvalues --   -0.43967  -0.43451  -0.43115  -0.42639  -0.42097
  Beta  occ. eigenvalues --   -0.41938  -0.41400  -0.41212  -0.40709  -0.40177
  Beta  occ. eigenvalues --   -0.39412  -0.39325  -0.38834  -0.38564  -0.36703
  Beta  occ. eigenvalues --   -0.36273  -0.35569  -0.34497  -0.34069  -0.33790
  Beta  occ. eigenvalues --   -0.32662  -0.31858  -0.30368  -0.29515  -0.28570
  Beta  occ. eigenvalues --   -0.27145
  Beta virt. eigenvalues --   -0.21669  -0.18126  -0.16758  -0.15278  -0.14367
  Beta virt. eigenvalues --   -0.12128  -0.11915  -0.09500  -0.08618  -0.08196
  Beta virt. eigenvalues --   -0.07678  -0.07095  -0.05929  -0.05643  -0.05179
  Beta virt. eigenvalues --   -0.04791  -0.04694  -0.04289  -0.04038  -0.03399
  Beta virt. eigenvalues --   -0.03188  -0.02680  -0.02657  -0.01939  -0.01696
  Beta virt. eigenvalues --   -0.01462  -0.01360  -0.01168  -0.01007  -0.00610
  Beta virt. eigenvalues --   -0.00329  -0.00052   0.00207   0.00496   0.00519
  Beta virt. eigenvalues --    0.00611   0.01320   0.01460   0.01715   0.01912
  Beta virt. eigenvalues --    0.02277   0.02668   0.02786   0.02942   0.03401
  Beta virt. eigenvalues --    0.03617   0.03773   0.03905   0.04206   0.04428
  Beta virt. eigenvalues --    0.04773   0.04836   0.04898   0.05115   0.05322
  Beta virt. eigenvalues --    0.05494   0.05664   0.05836   0.05932   0.06157
  Beta virt. eigenvalues --    0.06375   0.06573   0.06786   0.07018   0.07188
  Beta virt. eigenvalues --    0.07340   0.07709   0.07926   0.08031   0.08104
  Beta virt. eigenvalues --    0.08304   0.08496   0.08722   0.08811   0.09213
  Beta virt. eigenvalues --    0.09411   0.09950   0.10128   0.10233   0.10364
  Beta virt. eigenvalues --    0.10519   0.10708   0.10854   0.11311   0.11447
  Beta virt. eigenvalues --    0.11775   0.12100   0.12193   0.12314   0.12511
  Beta virt. eigenvalues --    0.12833   0.13080   0.13186   0.13324   0.13426
  Beta virt. eigenvalues --    0.13717   0.13988   0.14286   0.14423   0.14767
  Beta virt. eigenvalues --    0.14816   0.15001   0.15330   0.15412   0.15704
  Beta virt. eigenvalues --    0.16017   0.16217   0.16325   0.16537   0.16588
  Beta virt. eigenvalues --    0.16903   0.17049   0.17342   0.17650   0.17756
  Beta virt. eigenvalues --    0.18004   0.18179   0.18613   0.18705   0.19022
  Beta virt. eigenvalues --    0.19325   0.19418   0.19686   0.19912   0.20048
  Beta virt. eigenvalues --    0.20232   0.20415   0.20630   0.21016   0.21226
  Beta virt. eigenvalues --    0.21378   0.21669   0.21795   0.21896   0.22124
  Beta virt. eigenvalues --    0.22364   0.22691   0.22856   0.22969   0.23241
  Beta virt. eigenvalues --    0.23286   0.23301   0.23801   0.23973   0.24070
  Beta virt. eigenvalues --    0.24353   0.24458   0.24681   0.24862   0.25174
  Beta virt. eigenvalues --    0.25378   0.25773   0.25881   0.26198   0.26490
  Beta virt. eigenvalues --    0.26639   0.26675   0.26863   0.27267   0.27517
  Beta virt. eigenvalues --    0.27976   0.28141   0.28233   0.28305   0.28556
  Beta virt. eigenvalues --    0.28906   0.29005   0.29105   0.29440   0.29624
  Beta virt. eigenvalues --    0.29862   0.30102   0.30218   0.30520   0.30674
  Beta virt. eigenvalues --    0.30979   0.31177   0.31219   0.31438   0.31648
  Beta virt. eigenvalues --    0.31690   0.31898   0.31941   0.32284   0.32349
  Beta virt. eigenvalues --    0.32779   0.32901   0.33121   0.33301   0.33502
  Beta virt. eigenvalues --    0.33594   0.33887   0.33990   0.34096   0.34337
  Beta virt. eigenvalues --    0.34658   0.34805   0.34953   0.35241   0.35376
  Beta virt. eigenvalues --    0.35531   0.35673   0.35817   0.36160   0.36247
  Beta virt. eigenvalues --    0.36431   0.36463   0.36653   0.36741   0.36920
  Beta virt. eigenvalues --    0.37002   0.37313   0.37466   0.37602   0.37733
  Beta virt. eigenvalues --    0.38025   0.38120   0.38251   0.38591   0.38724
  Beta virt. eigenvalues --    0.38897   0.39017   0.39414   0.39451   0.39685
  Beta virt. eigenvalues --    0.39793   0.40017   0.40272   0.40354   0.40417
  Beta virt. eigenvalues --    0.40687   0.40782   0.40971   0.41292   0.41358
  Beta virt. eigenvalues --    0.41429   0.41724   0.41977   0.42141   0.42248
  Beta virt. eigenvalues --    0.42522   0.42625   0.42735   0.43021   0.43103
  Beta virt. eigenvalues --    0.43324   0.43582   0.43693   0.43718   0.44056
  Beta virt. eigenvalues --    0.44133   0.44210   0.44377   0.44529   0.44745
  Beta virt. eigenvalues --    0.44912   0.45334   0.45520   0.45711   0.45952
  Beta virt. eigenvalues --    0.46177   0.46343   0.46508   0.46818   0.46991
  Beta virt. eigenvalues --    0.47154   0.47174   0.47461   0.47785   0.47829
  Beta virt. eigenvalues --    0.48253   0.48378   0.48750   0.48864   0.49226
  Beta virt. eigenvalues --    0.49359   0.49734   0.49816   0.50109   0.50245
  Beta virt. eigenvalues --    0.50360   0.50581   0.50755   0.51021   0.51164
  Beta virt. eigenvalues --    0.51353   0.51662   0.51886   0.52023   0.52587
  Beta virt. eigenvalues --    0.52776   0.52814   0.53322   0.53390   0.53547
  Beta virt. eigenvalues --    0.53587   0.54117   0.54263   0.54460   0.54643
  Beta virt. eigenvalues --    0.54826   0.55253   0.55473   0.55997   0.56166
  Beta virt. eigenvalues --    0.56287   0.56317   0.56714   0.56939   0.57233
  Beta virt. eigenvalues --    0.57731   0.57857   0.58035   0.58506   0.58838
  Beta virt. eigenvalues --    0.58964   0.59095   0.59454   0.59549   0.59962
  Beta virt. eigenvalues --    0.60385   0.60694   0.60899   0.61033   0.61294
  Beta virt. eigenvalues --    0.61653   0.61864   0.61937   0.62025   0.62226
  Beta virt. eigenvalues --    0.62847   0.62887   0.63098   0.63842   0.63987
  Beta virt. eigenvalues --    0.64285   0.64416   0.64590   0.64685   0.65591
  Beta virt. eigenvalues --    0.65730   0.65865   0.66075   0.66348   0.66597
  Beta virt. eigenvalues --    0.66941   0.67120   0.67303   0.67748   0.68220
  Beta virt. eigenvalues --    0.68603   0.68833   0.69283   0.69502   0.69616
  Beta virt. eigenvalues --    0.69962   0.70089   0.70300   0.70444   0.70794
  Beta virt. eigenvalues --    0.71081   0.71517   0.71674   0.71904   0.72249
  Beta virt. eigenvalues --    0.72621   0.72815   0.73118   0.73657   0.73718
  Beta virt. eigenvalues --    0.73933   0.74246   0.74425   0.74872   0.75070
  Beta virt. eigenvalues --    0.75275   0.75720   0.75914   0.76293   0.76433
  Beta virt. eigenvalues --    0.76824   0.77104   0.77723   0.77978   0.78197
  Beta virt. eigenvalues --    0.78541   0.78790   0.78900   0.79290   0.79538
  Beta virt. eigenvalues --    0.79885   0.80225   0.80593   0.80614   0.81063
  Beta virt. eigenvalues --    0.81371   0.81551   0.81752   0.81891   0.82278
  Beta virt. eigenvalues --    0.82765   0.83019   0.83052   0.83319   0.83649
  Beta virt. eigenvalues --    0.83916   0.84346   0.84533   0.84620   0.84770
  Beta virt. eigenvalues --    0.84996   0.85435   0.85590   0.85983   0.86653
  Beta virt. eigenvalues --    0.86694   0.87164   0.87543   0.87636   0.87862
  Beta virt. eigenvalues --    0.88003   0.88062   0.88307   0.88753   0.89285
[...]
                                                    1548(r),206(r),1602(r)
                                                    1600(r),1603(r)
    26. BD (   1) C  16 - H  22          0.99056    -0.66601  1844(v),1839(v),208(r)
                                                    485(v),1847(g),406(v)
                                                    1914(r),210(r),207(r)
                                                    1854(r),211(r),1631(r)
                                                    206(r),1533(r),727(r)
                                                    1530(r),1574(r),1634(r)
                                                    1522(r)
   126. CR (   1) C  12                  0.99969   -10.15849  1841(v),379(v),510(v),515(v)
   127. CR (   1) C  13                  0.99958   -10.21594  1841(g),433(v),1846(v)
                                                    355(v),435(v),409(v)
   128. CR (   1) N  14                  0.99967   -14.34412  381(v),459(v),520(v),208(r)
   129. CR (   1) C  15                  0.99947   -10.19684  379(v),1835(v),1841(g)
                                                    485(v),525(v),381(v),208(r)
                                                    207(r),1831(r)
   130. CR (   1) C  16                  0.99967   -10.25186  484(v),1843(v),409(v),530(v)
                                                    208(r),207(r),1831(r),209(r)
   131. CR (   1) N  17                  0.99970   -14.30240  208(r),207(r),457(v),209(r)
                                                    431(v),210(r),1831(r)
                                                    1628(r),1632(r),1629(r)
                                                    206(r),1630(r)
   184. LP (   1) C  16                  0.48374    -0.23146  1845(v),1840(v),458(g)
                                                    408(v),483(v),489(v),405(v)
                                                    206(r),211(r)
   185. LP (   1) N  17                  0.81573    -0.48415  208(r),207(r),209(r),1842(v)
                                                    457(v),1841(v),210(r)
                                                    1847(g),1848(v),431(v)
                                                    1831(r),486(g),1844(g)
                                                    1846(v),1631(r),485(g)
                                                    463(v),206(r),1633(r)
                                                    1551(r),1577(r),1525(r)
                                                    1603(r),1548(r),1630(r)
                                                    1909(r),1637(r),1600(r)
                                                    1919(r),1887(r),1872(r)
                                                    1638(r),1646(r),1523(r)
                                                    1894(r),1866(r),1926(r)
                                                    1903(r),1574(r),1522(r)
                                                    1601(r),1914(r),1629(r)
                                                    1575(r)
   353. RY*(   1) C  12                  0.00053     1.07670   
   354. RY*(   2) C  12                  0.00035     1.83416   
   355. RY*(   3) C  12                  0.00022     1.27751   
   356. RY*(   4) C  12                  0.00006     1.34864   
   357. RY*(   5) C  12                  0.00003     1.36501   
   358. RY*(   6) C  12                  0.00000    21.60686   
   359. RY*(   7) C  12                  0.00001     1.50542   
   360. RY*(   8) C  12                  0.00000     1.65995   
   361. RY*(   9) C  12                  0.00001     1.31691   
   362. RY*(  10) C  12                  0.00000     2.86016   
   363. RY*(  11) C  12                  0.00000     1.70834   
   364. RY*(  12) C  12                  0.00000     2.20683   
   365. RY*(  13) C  12                  0.00000     2.40833   
   366. RY*(  14) C  12                  0.00000     2.98760   
   367. RY*(  15) C  12                  0.00000     2.52524   
   368. RY*(  16) C  12                  0.00000     2.45544   
   369. RY*(  17) C  12                  0.00000     2.43175   
   370. RY*(  18) C  12                  0.00001     2.49966   
   371. RY*(  19) C  12                  0.00000     2.48477   
   372. RY*(  20) C  12                  0.00000     3.43212   
   373. RY*(  21) C  12                  0.00000     3.28596   
   374. RY*(  22) C  12                  0.00000     3.30517   
   375. RY*(  23) C  12                  0.00000     3.35948   
   376. RY*(  24) C  12                  0.00000     3.58422   
   377. RY*(  25) C  12                  0.00000     3.49980   
   378. RY*(  26) C  12                  0.00000     3.16478   
   379. RY*(   1) C  13                  0.00186     1.59654   
   380. RY*(   2) C  13                  0.00156     1.27031   
   381. RY*(   3) C  13                  0.00095     1.22425   
   382. RY*(   4) C  13                  0.00077     2.04664   
   383. RY*(   5) C  13                  0.00057     1.73686   
   384. RY*(   6) C  13                  0.00039     1.68824   
   385. RY*(   7) C  13                  0.00022     2.59190   
   386. RY*(   8) C  13                  0.00011     2.58627   
   387. RY*(   9) C  13                  0.00006     2.53615   
   388. RY*(  10) C  13                  0.00003     2.42318   
   389. RY*(  11) C  13                  0.00003     3.54083   
   390. RY*(  12) C  13                  0.00000    21.33829   
   391. RY*(  13) C  13                  0.00000     2.62643   
   392. RY*(  14) C  13                  0.00001     1.72783   
   393. RY*(  15) C  13                  0.00000     1.46632   
   394. RY*(  16) C  13                  0.00000     1.06122   
   395. RY*(  17) C  13                  0.00000     1.99637   
   396. RY*(  18) C  13                  0.00000     1.47450   
   397. RY*(  19) C  13                  0.00000     3.43821   
   398. RY*(  20) C  13                  0.00000     3.86864   
   399. RY*(  21) C  13                  0.00000     3.43871   
   400. RY*(  22) C  13                  0.00000     3.46398   
   401. RY*(  23) C  13                  0.00000     3.30761   
   402. RY*(  24) C  13                  0.00000     3.71923   
   403. RY*(  25) C  13                  0.00000     3.51323   
   404. RY*(  26) C  13                  0.00000     3.44231   
   405. RY*(   1) N  14                  0.00133     0.70675   
   406. RY*(   2) N  14                  0.00103     1.64692   
   407. RY*(   3) N  14                  0.00046     2.12042   
   408. RY*(   4) N  14                  0.00038     2.22220   
   409. RY*(   5) N  14                  0.00027     1.09244   
   410. RY*(   6) N  14                  0.00010     1.95114   
   411. RY*(   7) N  14                  0.00006     2.17083   
   412. RY*(   8) N  14                  0.00003     2.66233   
   413. RY*(   9) N  14                  0.00002     2.60246   
   414. RY*(  10) N  14                  0.00002     4.13163   
   415. RY*(  11) N  14                  0.00000     4.50904   
   416. RY*(  12) N  14                  0.00000     1.91787   
   417. RY*(  13) N  14                  0.00001     4.05165   
   418. RY*(  14) N  14                  0.00001     2.34722   
   419. RY*(  15) N  14                  0.00001     3.98107   
   420. RY*(  16) N  14                  0.00000     2.62857   
   421. RY*(  17) N  14                  0.00000     4.17643   
   422. RY*(  18) N  14                  0.00000     2.64063   
   423. RY*(  19) N  14                  0.00000    30.55707   
   424. RY*(  20) N  14                  0.00000     4.48090   
   425. RY*(  21) N  14                  0.00000     4.25871   
   426. RY*(  22) N  14                  0.00000     4.50074   
   427. RY*(  23) N  14                  0.00000     4.31648   
   428. RY*(  24) N  14                  0.00000     4.49089   
   429. RY*(  25) N  14                  0.00000     4.36719   
   430. RY*(  26) N  14                  0.00000     4.32907   
   431. RY*(   1) C  15                  0.00197     1.29384   
   432. RY*(   2) C  15                  0.00180     0.73519   
   433. RY*(   3) C  15                  0.00079     1.63190   
   434. RY*(   4) C  15                  0.00033     1.63224   
   435. RY*(   5) C  15                  0.00029     1.31532   
   436. RY*(   6) C  15                  0.00026     2.20209   
   437. RY*(   7) C  15                  0.00020     2.10853   
   438. RY*(   8) C  15                  0.00014     1.63863   
   439. RY*(   9) C  15                  0.00011     1.42424   
   440. RY*(  10) C  15                  0.00008     1.99023   
   441. RY*(  11) C  15                  0.00004     1.11421   
   442. RY*(  12) C  15                  0.00002     2.75803   
   443. RY*(  13) C  15                  0.00003     2.55205   
   444. RY*(  14) C  15                  0.00002     1.57782   
   445. RY*(  15) C  15                  0.00002     2.47266   
   446. RY*(  16) C  15                  0.00001     2.45195   
   447. RY*(  17) C  15                  0.00000     3.13649   
   448. RY*(  18) C  15                  0.00000     3.55412   
   449. RY*(  19) C  15                  0.00000    21.03426   
   450. RY*(  20) C  15                  0.00000     3.74300   
   451. RY*(  21) C  15                  0.00000     3.58896   
   452. RY*(  22) C  15                  0.00000     3.67842   
   453. RY*(  23) C  15                  0.00000     3.35086   
   454. RY*(  24) C  15                  0.00000     3.72342   
   455. RY*(  25) C  15                  0.00000     3.52752   
   456. RY*(  26) C  15                  0.00000     3.34195   
   457. RY*(   1) C  16                  0.00210     1.65228   
   458. RY*(   2) C  16                  0.00162     0.45886   
   459. RY*(   3) C  16                  0.00120     1.63623   
   460. RY*(   4) C  16                  0.00077     1.02343   
   461. RY*(   5) C  16                  0.00051     2.43130   
   462. RY*(   6) C  16                  0.00035     1.78422   
   463. RY*(   7) C  16                  0.00021     1.89680   
   464. RY*(   8) C  16                  0.00014     1.61834   
   465. RY*(   9) C  16                  0.00009     1.70762   
   466. RY*(  10) C  16                  0.00008     1.14712   
   467. RY*(  11) C  16                  0.00006     2.10088   
   468. RY*(  12) C  16                  0.00003     2.37018   
   469. RY*(  13) C  16                  0.00003     3.14281   
   470. RY*(  14) C  16                  0.00003     2.16271   
   471. RY*(  15) C  16                  0.00000     3.49365   
   472. RY*(  16) C  16                  0.00000    21.38061   
   473. RY*(  17) C  16                  0.00000     3.17436   
   474. RY*(  18) C  16                  0.00001     1.55949   
   475. RY*(  19) C  16                  0.00001     2.42422   
   476. RY*(  20) C  16                  0.00001     3.79865   
   477. RY*(  21) C  16                  0.00000     3.69511   
   478. RY*(  22) C  16                  0.00000     3.80915   
   479. RY*(  23) C  16                  0.00000     3.46284   
   480. RY*(  24) C  16                  0.00000     3.71150   
   481. RY*(  25) C  16                  0.00000     3.62489   
   482. RY*(  26) C  16                  0.00000     3.31198   
   483. RY*(   1) N  17                  0.00763     0.65101   
   484. RY*(   2) N  17                  0.00446     1.02638   
   485. RY*(   3) N  17                  0.00333     1.17698   
   486. RY*(   4) N  17                  0.00061     1.71959   
   487. RY*(   5) N  17                  0.00037     2.13956   
   488. RY*(   6) N  17                  0.00030     1.81722   
   489. RY*(   7) N  17                  0.00022     2.19982   
   490. RY*(   8) N  17                  0.00016     3.21949   
   491. RY*(   9) N  17                  0.00006     2.35992   
   492. RY*(  10) N  17                  0.00004     3.41661   
   493. RY*(  11) N  17                  0.00003     3.75969   
   494. RY*(  12) N  17                  0.00003     3.81175   
   495. RY*(  13) N  17                  0.00002     3.36416   
   496. RY*(  14) N  17                  0.00002     3.21653   
   497. RY*(  15) N  17                  0.00000     3.93654   
   498. RY*(  16) N  17                  0.00000     4.74428   
   499. RY*(  17) N  17                  0.00000    31.65157   
   500. RY*(  18) N  17                  0.00000     3.79414   
   501. RY*(  19) N  17                  0.00001     4.38930   
   502. RY*(  20) N  17                  0.00000     4.31345   
   503. RY*(  21) N  17                  0.00000     4.45355   
   504. RY*(  22) N  17                  0.00001     4.64215   
   505. RY*(  23) N  17                  0.00000     4.61878   
   506. RY*(  24) N  17                  0.00000     4.49963   
   507. RY*(  25) N  17                  0.00000     4.34911   
   508. RY*(  26) N  17                  0.00000     4.38350   
   509. RY*(   1) H  18                  0.00031     1.16872   
   510. RY*(   2) H  18                  0.00007     1.58658   
   511. RY*(   3) H  18                  0.00004     1.76788   
   512. RY*(   4) H  18                  0.00002     1.91378   
   513. RY*(   5) H  18                  0.00000     2.83677   
   514. RY*(   1) H  19                  0.00028     1.12775   
   515. RY*(   2) H  19                  0.00007     1.60211   
   516. RY*(   3) H  19                  0.00004     1.79427   
   517. RY*(   4) H  19                  0.00002     1.93193   
   518. RY*(   5) H  19                  0.00000     2.82590   
   519. RY*(   1) H  20                  0.00028     2.06509   
   520. RY*(   2) H  20                  0.00020     2.07985   
   521. RY*(   3) H  20                  0.00010     2.60194   
   522. RY*(   4) H  20                  0.00008     1.02602   
   523. RY*(   5) H  20                  0.00000     3.00279   
   524. RY*(   1) H  21                  0.00024     0.60134   
   525. RY*(   2) H  21                  0.00015     2.24970   
   526. RY*(   3) H  21                  0.00012     2.15374   
   527. RY*(   4) H  21                  0.00003     2.60679   
   528. RY*(   5) H  21                  0.00000     2.99235   
   529. RY*(   1) H  22                  0.00041     0.62224   
   530. RY*(   2) H  22                  0.00017     2.36256   
   531. RY*(   3) H  22                  0.00008     2.15340   
   532. RY*(   4) H  22                  0.00003     2.54225   
   533. RY*(   5) H  22                  0.00001     3.03398   
  1798. RY*(   1) H  95                  0.00012     1.45776   
  1799. RY*(   2) H  95                  0.00006     1.65108   
  1800. RY*(   3) H  95                  0.00003     1.98754   
  1801. RY*(   4) H  95                  0.00000     2.89647   
  1802. RY*(   5) H  95                  0.00001     1.35257   
  1835. BD*(   1) C  12 - C  13          0.00675     0.28077   
  1836. BD*(   1) C  12 - H  18          0.00483     0.31110   
  1837. BD*(   1) C  12 - H  19          0.00398     0.31141   
  1838. BD*(   1) C  12 - H  95          0.00153     0.31650   
  1839. BD*(   1) C  13 - N  14          0.01343     0.33751   
  1840. BD*(   2) C  13 - N  14          0.37391    -0.13779  1845(v),184(v),1836(v)
                                                    1837(v),380(g),405(g),385(g)
                                                    436(v),1627(r)
  1841. BD*(   1) C  13 - C  15          0.00914     0.45413   
  1842. BD*(   1) N  14 - C  16          0.01023     0.38117   
  1843. BD*(   1) N  14 - H  20          0.00713     0.27878   
  1844. BD*(   1) C  15 - N  17          0.00941     0.32913   
  1845. BD*(   2) C  15 - N  17          0.34262    -0.12405  1840(v),184(v),432(g),483(g)
                                                    210(r),458(v),487(g),211(r)
                                                    1920(r),1888(r),209(r)
                                                    1627(r)
  1846. BD*(   1) C  15 - H  21          0.00587     0.31930   
  1847. BD*(   1) C  16 - N  17          0.00897     0.38711   
  1848. BD*(   1) C  16 - H  22          0.00826     0.29101   
       -------------------------------
              Total Lewis   20.98825  ( 96.1020%)
        Valence non-Lewis    0.80604  (  3.6907%)
        Rydberg non-Lewis    0.04526  (  0.2072%)
       -------------------------------
            Total unit  2   21.83955  (100.0000%)
           Charge unit  2    0.16045
 1\1\GINC-NODE867\SP\UPBE1PBE\def2TZVP\C41H46Fe1N6O4S1(1+,6)\ZHARTOVSKA
 \22-Jan-2023\0\\# PBE1PBE/def2TZVP empiricaldispersion=GD3BJ int=(grid
 =ultrafine) geom=check pop=nbo\\1qpu_III_H\\1,6\C,0,2.282,-5.169,8.634
 \C,0,3.509,-5.724,7.905\S,0,3.301,-5.824,6.104\C,0,4.897,-5.355,5.406\
 H,0,2.46731386,-5.15936603,9.68778649\H,0,1.43388655,-5.787553,8.42664
 582\H,0,4.324,-5.028,8.095\H,0,3.791,-6.69,8.319\H,0,5.164,-4.376,5.80
 4\H,0,5.661,-6.086,5.662\H,0,4.798,-5.274,4.324\C,0,0.966,-12.429,2.49
 2\C,0,0.992,-11.18,3.345\N,0,-0.055,-10.84,4.164\C,0,1.929,-10.176,3.4
 25\C,0,0.226,-9.654,4.709\N,0,1.436,-9.215,4.325\H,0,0.21168143,-12.33
 130538,1.73943156\H,0,0.7481295,-13.27674538,3.10743498\H,0,-0.949,-11
 .309,4.18\H,0,2.864,-10.127,2.888\H,0,-0.457,-9.141,5.365\C,0,2.314,-8
 .973,8.107\C,0,-0.757,-6.058,5.779\C,0,2.335,-6.11,1.965\C,0,5.465,-8.
 968,4.422\C,0,1.226,-8.25,7.755\C,0,0.107,-8.117,8.63\C,0,-0.757,-7.26
 5,8.011\C,0,-0.191,-6.899,6.728\C,0,-2.005,-6.837,8.669\C,0,0.025,-8.7
 51,10.003\C,0,-0.643,-8.068,11.217\C,0,-0.866,-9.024,12.375\O,0,-0.739
 ,-8.55,13.523\O,0,-1.21,-10.192,12.089\C,0,-0.156,-5.832,4.532\C,0,-0.
 669,-4.922,3.536\C,0,0.206,-4.945,2.47\C,0,1.26,-5.86,2.806\C,0,-1.853
 ,-4.028,3.762\C,0,0.182,-4.178,1.173\C,0,-1.055,-3.366,0.836\C,0,3.427
 ,-6.904,2.311\C,0,4.529,-7.184,1.431\C,0,5.431,-7.971,2.114\C,0,4.86,-
 8.208,3.42\C,0,4.516,-6.824,-0.022\C,0,6.755,-8.516,1.615\C,0,7.42,-7.
 741,0.48\C,0,4.87,-9.139,5.664\C,0,5.437,-9.871,6.774\C,0,4.524,-9.875
 ,7.778\C,0,3.412,-9.117,7.329\C,0,6.738,-10.558,6.92\C,0,4.537,-10.691
 ,9.042\C,0,5.019,-9.893,10.237\C,0,4.08,-10.031,11.412\O,0,3.575,-8.96
 9,11.83\O,0,3.845,-11.19,11.812\N,0,1.007,-7.536,6.637\N,0,1.002,-6.36
 5,4.033\N,0,3.649,-7.553,3.467\N,0,3.652,-8.675,6.086\Fe,0,2.258,-7.55
 3,5.013\H,0,-1.686,-5.569,6.019\H,0,2.316,-5.623,1.005\H,0,6.418,-9.43
 9,4.239\H,0,2.334,-9.411,9.085\H,0,-1.677,-6.14,9.44\H,0,-2.746,-6.429
 ,7.988\H,0,-2.345,-7.759,9.139\H,0,0.999,-8.495,10.306\H,0,0.074,-9.85
 6,9.977\H,0,-1.591,-7.597,11.021\H,0,0.034,-7.278,11.56\H,0,-1.732,-3.
 646,4.768\H,0,-1.898,-3.178,3.088\H,0,-2.776,-4.598,3.706\H,0,4.603,-5
 .747,-0.139\H,0,5.288,-7.325,-0.593\H,0,3.54,-7.158,-0.366\H,0,7.47,-9
 .817,7.227\H,0,6.536,-11.273,7.724\H,0,7.033,-11.061,6.01\H,0,4.91,-11
 .691,9.02\H,0,3.545,-11.02,9.192\H,0,4.974,-8.851,9.953\H,0,6.036,-10.
 179,10.508\H,0,4.5711661,-11.7835636,12.0168537\H,0,0.13689903,-8.4000
 3863,13.88619758\H,0,-1.26640411,-2.46516465,1.37331181\H,0,6.9546156,
 -7.69729279,-0.48250041\H,0,2.08745112,-4.17228276,8.29694589\H,0,1.91
 979822,-12.56241773,2.02577187\H,0,8.35142881,-7.24157275,0.64707123\H
 ,0,7.198495,-9.39461495,2.03481895\H,0,-1.71576114,-3.69432267,0.06108
 133\H,0,1.01764659,-4.2052942,0.50528014\\Version=AM64L-G16RevA.03\Sta
 te=6-A\HF=-3878.9887538\S2=9.0561\S2-1=0.\S2A=8.769594\RMSD=1.300e-09\
 Dipole=1.9833122,-0.6184294,-2.9564743\Quadrupole=-0.2536433,-10.90886
 39,11.1625073,-19.0319504,11.8962427,-2.7825408\PG=C01 [X(C41H46Fe1N6O
 4S1)]\\@


 Just remember, when you're over the hill, you begin to pick up speed.
 -- Charles Schulz
 Job cpu time:      10 days 12 hours 42 minutes 18.8 seconds.
 Elapsed time:       2 days 15 hours 22 minutes 33.1 seconds.
 File lengths (MBytes):  RWF=   3452 Int=      0 D2E=      0 Chk=    298 Scr=      1
 Normal termination of Gaussian 16 at Sun Jan 22 07:27:56 2023.
