 Entering Gaussian System, Link 0=g16
 Input=/net/homes/chemie/zhartovska/work/BioModel/Konrad/1vb6/PDB/1vb605/1vb605.com
 Output=/net/homes/chemie/zhartovska/work/BioModel/Konrad/1vb6/PDB/1vb605/1vb605.log
 Initial command:
 /afs/math/software/gaussian/g16.A03/g16/l1.exe "/scratch/zhartovska_gaussian.w9VOxwe/Gau-10766.inp" -scrdir="/scratch/zhartovska_gaussian.w9VOxwe/"
 Entering Link 1 = /afs/math/software/gaussian/g16.A03/g16/l1.exe PID=     10767.
  
 Copyright (c) 1988,1990,1992,1993,1995,1998,2003,2009,2016,
            Gaussian, Inc.  All Rights Reserved.
  
 This is part of the Gaussian(R) 16 program.  It is based on
 the Gaussian(R) 09 system (copyright 2009, Gaussian, Inc.),
 the Gaussian(R) 03 system (copyright 2003, Gaussian, Inc.),
 the Gaussian(R) 98 system (copyright 1998, Gaussian, Inc.),
 the Gaussian(R) 94 system (copyright 1995, Gaussian, Inc.),
 the Gaussian 92(TM) system (copyright 1992, Gaussian, Inc.),
 the Gaussian 90(TM) system (copyright 1990, Gaussian, Inc.),
 the Gaussian 88(TM) system (copyright 1988, Gaussian, Inc.),
 the Gaussian 86(TM) system (copyright 1986, Carnegie Mellon
 University), and the Gaussian 82(TM) system (copyright 1983,
 Carnegie Mellon University). Gaussian is a federally registered
 trademark of Gaussian, Inc.
  
 This software contains proprietary and confidential information,
 including trade secrets, belonging to Gaussian, Inc.
  
 This software is provided under written license and may be
 used, copied, transmitted, or stored only in accord with that
 written license.
  
 The following legend is applicable only to US Government
 contracts under FAR:
  
                    RESTRICTED RIGHTS LEGEND
  
 Use, reproduction and disclosure by the US Government is
 subject to restrictions as set forth in subparagraphs (a)
 and (c) of the Commercial Computer Software - Restricted
 Rights clause in FAR 52.227-19.
  
 Gaussian, Inc.
 340 Quinnipiac St., Bldg. 40, Wallingford CT 06492
  
  
 ---------------------------------------------------------------
 Warning -- This program may not be used in any manner that
 competes with the business of Gaussian, Inc. or will provide
 assistance to any competitor of Gaussian, Inc.  The licensee
 of this program is prohibited from giving any competitor of
 Gaussian, Inc. access to this program.  By using this program,
 the user acknowledges that Gaussian, Inc. is engaged in the
 business of creating and licensing software in the field of
 computational chemistry and represents and warrants to the
 licensee that it is not a competitor of Gaussian, Inc. and that
 it will not use this program in any manner prohibited above.
 ---------------------------------------------------------------
  

 Cite this work as:
 Gaussian 16, Revision A.03,
 M. J. Frisch, G. W. Trucks, H. B. Schlegel, G. E. Scuseria, 
 M. A. Robb, J. R. Cheeseman, G. Scalmani, V. Barone, 
 G. A. Petersson, H. Nakatsuji, X. Li, M. Caricato, A. V. Marenich, 
 J. Bloino, B. G. Janesko, R. Gomperts, B. Mennucci, H. P. Hratchian, 
 J. V. Ortiz, A. F. Izmaylov, J. L. Sonnenberg, D. Williams-Young, 
 F. Ding, F. Lipparini, F. Egidi, J. Goings, B. Peng, A. Petrone, 
 T. Henderson, D. Ranasinghe, V. G. Zakrzewski, J. Gao, N. Rega, 
 G. Zheng, W. Liang, M. Hada, M. Ehara, K. Toyota, R. Fukuda, 
 J. Hasegawa, M. Ishida, T. Nakajima, Y. Honda, O. Kitao, H. Nakai, 
 T. Vreven, K. Throssell, J. A. Montgomery, Jr., J. E. Peralta, 
 F. Ogliaro, M. J. Bearpark, J. J. Heyd, E. N. Brothers, K. N. Kudin, 
 V. N. Staroverov, T. A. Keith, R. Kobayashi, J. Normand, 
 K. Raghavachari, A. P. Rendell, J. C. Burant, S. S. Iyengar, 
 J. Tomasi, M. Cossi, J. M. Millam, M. Klene, C. Adamo, R. Cammi, 
 J. W. Ochterski, R. L. Martin, K. Morokuma, O. Farkas, 
 J. B. Foresman, and D. J. Fox, Gaussian, Inc., Wallingford CT, 2016.
 
 ******************************************
 Gaussian 16:  ES64L-G16RevA.03 25-Dec-2016
                19-Jan-2023 
 ******************************************
 %nprocs=12
 Will use up to   12 processors via shared memory.
 %mem=16GB
 %oldchk=1vb6_II_S.chk
 %chk=1vb6_II_Q.chk
 Copying data from "1vb6_II_S.chk" to current chk file "1vb6_II_Q.chk"
 IOpt=  2 FromEx=T IUOpen= 4 IOptOp= 5 NList=   0 IFRang= 0 IUIn= 4 IUOut= 2.
 ----------------------------------------------------------------------
 # PBE1PBE/def2TZVP empiricaldispersion=GD3BJ scf=maxcycle=999 geom=che
 ck pop=nbo
 ----------------------------------------------------------------------
 1/29=2,38=1,172=1/1;
 2/12=2,40=1/2;
 3/5=44,7=101,11=2,14=-4,25=1,30=1,74=-13,124=41/1,2,3;
 4//1;
 5/5=2,7=999,38=5/2;
 6/7=2,8=2,9=2,10=2,28=1,40=1/1,7;
 99/5=1,9=1/99;
 ---------
 1vb6_II_Q
 ---------
 Structure from the checkpoint file:  "1vb6_II_Q.chk"
 Charge =  0 Multiplicity = 5
 Z-Matrix found in chk file.
 C,0,-2.424,-20.167999,-17.756001
 C,0,-1.867,-19.166,-16.792
 N,0,-1.739,-17.827999,-17.097
 C,0,-1.43,-19.306,-15.519
 C,0,-1.25,-17.184999,-16.052999
 N,0,-1.053,-18.058001,-15.081
 C,0,-0.046,-17.419001,-8.269
 C,0,-0.44,-17.849001,-9.667
 S,0,0.424,-16.907,-10.952
 C,0,2.103,-17.461,-10.658
 C,0,-3.488,-18.146999,-11.841
 C,0,0.475,-20.855,-12.647
 C,0,2.812,-16.966999,-14.344
 C,0,-1.12,-14.231,-13.549
 C,0,-2.587,-19.247999,-11.935
 C,0,-2.932,-20.6,-11.506
 C,0,-1.805,-21.367001,-11.727
 C,0,-0.802,-20.481001,-12.283
 C,0,-1.657,-22.875999,-11.434
 C,0,-4.327,-21.063,-11.046
 C,0,-4.331,-21.563,-9.609
 C,0,-3.95,-20.499001,-8.605
 O,0,-2.992,-20.737,-7.867
 O,0,-4.603,-19.431999,-8.572
 C,0,1.452,-20.034,-13.173
 C,0,2.769,-20.487,-13.523
 C,0,3.487,-19.410999,-14.027
 C,0,2.526,-18.271999,-13.951
 C,0,3.248,-21.954,-13.337
 C,0,4.848,-19.458,-14.494
 C,0,6.023,-20.097,-13.992
 C,0,1.931,-15.889,-14.27
 C,0,2.322,-14.539,-14.688
 C,0,1.194,-13.739,-14.465
 C,0,0.167,-14.634,-13.918
 C,0,3.717,-14.158,-15.246
 C,0,0.995,-12.333,-14.685
 C,0,1.891,-11.248,-14.539
 C,0,-2.116,-15.047,-13.008
 C,0,-3.443,-14.59,-12.61
 C,0,-4.099,-15.687,-12.125
 C,0,-3.174,-16.819,-12.245
 C,0,-4.001,-13.156,-12.69
 C,0,-5.525,-15.74,-11.562
 C,0,-5.357,-15.764,-10.037
 C,0,-6.585,-15.349,-9.233
 O,0,-6.445,-15.222,-7.988
 O,0,-7.668,-15.154,-9.838
 N,0,-1.292,-19.194,-12.411
 N,0,1.284,-18.655001,-13.442
 N,0,0.629,-15.962,-13.807
 N,0,-1.964,-16.415001,-12.778
 Fe,0,-0.402,-17.572001,-13.123
 H,0,-5.5654052,-15.1829708,-7.60539093
 H,0,-5.08749005,-16.75782718,-9.74618749
 H,0,-4.55168658,-15.10830396,-9.77925399
 H,0,-6.02223092,-16.62724052,-11.89436377
 H,0,-6.07430299,-14.87180373,-11.86100076
 H,0,-3.31581583,-12.53625783,-13.22976133
 H,0,-4.94451449,-13.1680529,-13.19451475
 H,0,-4.13016516,-12.76786754,-11.70127883
 H,0,-4.46316194,-18.33105867,-11.44089848
 H,0,-1.36505811,-13.1997123,-13.69491847
 H,0,4.41882934,-14.93026432,-15.00947645
 H,0,3.65716398,-14.04351916,-16.30817409
 H,0,4.03799666,-13.23720635,-14.80554546
 H,0,3.78931294,-16.77569619,-14.73536001
 H,0,4.18904507,-21.96008368,-12.82778771
 H,0,2.52677545,-22.49425537,-12.76006042
 H,0,3.35791026,-22.41750451,-14.29511445
 H,0,0.7338584,-21.88383212,-12.5077276
 H,0,-0.75318818,-23.04617832,-10.8871333
 H,0,-2.4924481,-23.21056443,-10.85521468
 H,0,-1.62281814,-23.4168021,-12.35663948
 H,0,-4.65799906,-21.85272864,-11.68761382
 H,0,-5.00813605,-20.24189546,-11.1281037
 H,0,-5.31133489,-21.92126563,-9.37343845
 H,0,-3.63938766,-22.37528621,-9.52675961
 H,0,-2.09583782,-20.6313472,-8.19461385
 H,0,-1.04762584,-16.13552516,-16.00250783
 H,0,-1.9791923,-17.40946593,-17.97286399
 H,0,-1.38602936,-20.21643011,-14.95856838
 H,0,-1.74563411,-20.99042479,-17.84730015
 H,0,-3.36763089,-20.52217969,-17.39681194
 H,0,-2.5566325,-19.70717867,-18.71253289
 H,0,2.74283065,-16.61187198,-10.53759093
 H,0,2.13140383,-18.05772314,-9.77029807
 H,0,2.43711724,-18.04413915,-11.49059498
 H,0,0.89035132,-16.90244772,-8.30531686
 H,0,-0.79680988,-16.76883471,-7.87091921
 H,0,0.04677072,-18.28197888,-7.64325023
 H,0,-0.2111117,-18.88735683,-9.78669677
 H,0,-1.4942386,-17.71082528,-9.78695183
 H,0,5.97726104,-21.1108158,-13.65290492
 H,0,6.94878472,-19.56177891,-13.95510762
 H,0,5.01189251,-18.90501463,-15.39524715
 H,0,2.23140216,-10.96252302,-13.56558885
 H,0,2.22828537,-10.71283971,-15.40198438
 H,0,0.01221579,-12.06368705,-15.01135216
 Recover connectivity data from disk.
 Stoichiometry    C41H46FeN6O4S(5)
 Framework group  C1[X(C41H46FeN6O4S)]
 Deg. of freedom   291
 Full point group                 C1      NOp   1
 Largest Abelian subgroup         C1      NOp   1
 Largest concise Abelian subgroup C1      NOp   1
                         Standard orientation:                         
 ---------------------------------------------------------------------
 Center     Atomic      Atomic             Coordinates (Angstroms)
 Number     Number       Type             X           Y           Z
 ---------------------------------------------------------------------
      1          6           0       -1.455645   -1.216367    5.645066
      2          6           0       -1.437922   -0.507888    4.325486
      3          7           0       -1.724946    0.833824    4.194790
      4          6           0       -1.140542   -0.952647    3.082565
      5          6           0       -1.602520    1.187248    2.928847
      6          7           0       -1.248726    0.122251    2.231468
      7          6           0        1.457369   -0.728434   -4.075599
      8          6           0        1.065548   -0.818595   -2.615159
      9         16           0       -0.356622    0.230336   -2.212341
     10          6           0       -1.624416   -0.593734   -3.174630
     11          6           0        2.524573   -0.267427    0.801395
     12          6           0       -1.235425   -3.278693    0.106440
     13          6           0       -4.167596    0.511484   -0.597025
     14          6           0       -0.440137    3.547876    0.084674
     15          6           0        1.723095   -1.440851    0.685002
     16          6           0        2.260081   -2.790917    0.826210
     17          6           0        1.195074   -3.645858    0.621036
     18          6           0        0.037595   -2.813010    0.362684
     19          6           0        1.243141   -5.188840    0.662571
     20          6           0        3.695233   -3.140826    1.261979
     21          6           0        4.458942   -3.907309    0.192288
     22          6           0        4.646643   -3.122504   -1.086039
     23          8           0        4.221239   -3.628544   -2.126235
     24          8           0        5.205453   -2.003897   -1.036639
     25          6           0       -2.354157   -2.511307   -0.148123
     26          6           0       -3.652821   -3.061896   -0.417421
     27          6           0       -4.542963   -2.015933   -0.619723
     28          6           0       -3.700355   -0.793915   -0.467066
     29          6           0       -3.943238   -4.588176   -0.464904
     30          6           0       -5.945936   -2.155310   -0.911031
     31          6           0       -6.674414   -3.034085   -1.770115
     32          6           0       -3.393321    1.663766   -0.468714
     33          6           0       -3.963675    3.003475   -0.641865
     34          6           0       -2.897215    3.890208   -0.445699
     35          6           0       -1.723900    3.053648   -0.165588
     36          6           0       -5.449107    3.292945   -0.976901
     37          6           0       -2.862187    5.325805   -0.497364
     38          6           0       -3.563148    6.228976   -1.330607
     39          6           0        0.702569    2.784993    0.335242
     40          6           0        2.034863    3.331427    0.568878
     41          6           0        2.862540    2.260355    0.760516
     42          6           0        2.027415    1.058652    0.660890
     43          6           0        2.448569    4.815647    0.576403
     44          6           0        4.372547    2.292659    1.029013
     45          6           0        5.029521    1.947800   -0.314074
     46          6           0        6.490995    2.360453   -0.457022
     47          8           0        7.022937    2.220889   -1.589857
     48          8           0        7.093146    2.815695    0.546526
     49          7           0        0.370227   -1.471399    0.410538
     50          7           0       -2.370852   -1.096552   -0.168459
     51          7           0       -2.041053    1.679360   -0.175407
     52          7           0        0.712286    1.390735    0.393382
     53         26           0       -0.782814    0.122142    0.163453
     54          1           0        6.474175    2.064160   -2.361800
     55          1           0        4.966016    0.889017   -0.454950
     56          1           0        4.470177    2.424508   -1.091752
     57          1           0        4.633603    1.563780    1.767583
     58          1           0        4.671668    3.269113    1.348331
     59          1           0        1.573790    5.429988    0.528998
     60          1           0        2.987461    5.031148    1.475322
     61          1           0        3.071750    5.016503   -0.269885
     62          1           0        3.567100   -0.391843    1.007692
     63          1           0       -0.321977    4.611332    0.084176
     64          1           0       -5.912146    2.401137   -1.344558
     65          1           0       -5.956697    3.620305   -0.093675
     66          1           0       -5.503894    4.057220   -1.723749
     67          1           0       -5.207468    0.640930   -0.813380
     68          1           0       -4.477318   -4.821874   -1.362146
     69          1           0       -3.019355   -5.127701   -0.448976
     70          1           0       -4.532955   -4.865603    0.383723
     71          1           0       -1.368852   -4.340340    0.104869
     72          1           0        0.762726   -5.584207   -0.207939
     73          1           0        2.262454   -5.513429    0.685859
     74          1           0        0.737545   -5.537979    1.538571
     75          1           0        3.651279   -3.737057    2.149378
     76          1           0        4.220968   -2.234648    1.479564
     77          1           0        5.421950   -4.167973    0.579031
     78          1           0        3.924240   -4.806376   -0.032817
     79          1           0        3.285043   -3.583719   -2.333908
     80          1           0       -1.762546    2.169010    2.534596
     81          1           0       -1.985404    1.444514    4.942600
     82          1           0       -0.871774   -1.952557    2.812668
     83          1           0       -2.069933   -2.089488    5.572889
     84          1           0       -0.459114   -1.502273    5.909799
     85          1           0       -1.850550   -0.563446    6.395163
     86          1           0       -2.117507    0.120242   -3.800729
     87          1           0       -1.175027   -1.350971   -3.782529
     88          1           0       -2.337578   -1.042437   -2.515111
     89          1           0        0.634145   -0.347089   -4.642855
     90          1           0        2.296535   -0.072830   -4.179921
     91          1           0        1.718199   -1.701695   -4.435642
     92          1           0        0.821967   -1.834691   -2.384684
     93          1           0        1.898331   -0.517455   -2.014586
     94          1           0       -6.443934   -4.078838   -1.786537
     95          1           0       -7.450505   -2.647511   -2.397127
     96          1           0       -6.565552   -1.464063   -0.378910
     97          1           0       -3.346385    6.269239   -2.377647
     98          1           0       -4.310081    6.871824   -0.913788
     99          1           0       -2.200246    5.785001    0.206819
 ---------------------------------------------------------------------
 Rotational constants (GHZ):           0.0646479           0.0458960           0.0358229
 Standard basis: def2TZVP (5D, 7F)
 There are  2206 symmetry adapted cartesian basis functions of A   symmetry.
 There are  1939 symmetry adapted basis functions of A   symmetry.
  1939 basis functions,  3140 primitive gaussians,  2206 cartesian basis functions
   206 alpha electrons      202 beta electrons
       nuclear repulsion energy      8883.6309588387 Hartrees.
 NAtoms=   99 NActive=   99 NUniq=   99 SFac= 1.00D+00 NAtFMM=   60 NAOKFM=T Big=T
 Integral buffers will be    131072 words long.
 Raffenetti 2 integral format.
 Two-electron integral symmetry is turned on.
 Nuclear repulsion after empirical dispersion term =     8883.4835768077 Hartrees.
 One-electron integrals computed using PRISM.
   1 Symmetry operations used in ECPInt.
 ECPInt:  NShTT=  299151 NPrTT=  925475 LenC2=  220413 LenP2D=  439532.
 LDataN:  DoStor=T MaxTD1= 6 Len=  172
 NBasis=  1939 RedAO= T EigKep=  3.02D-06  NBF=  1939
 NBsUse=  1939 1.00D-06 EigRej= -1.00D+00 NBFU=  1939
 ExpMin= 4.20D-02 ExpMax= 3.01D+05 ExpMxC= 2.91D+03 IAcc=3 IRadAn=         5 AccDes= 0.00D+00
 Harris functional with IExCor= 1009 and IRadAn=       5 diagonalized for initial guess.
 HarFok:  IExCor= 1009 AccDes= 0.00D+00 IRadAn=         5 IDoV= 1 UseB2=F ITyADJ=14
 ICtDFT=  3500011 ScaDFX=  1.000000  1.000000  1.000000  1.000000
 FoFCou: FMM=F IPFlag=           0 FMFlag=      100000 FMFlg1=        2001
         NFxFlg=           0 DoJE=T BraDBF=F KetDBF=T FulRan=T
         wScrn=  0.000000 ICntrl=       500 IOpCl=  0 I1Cent=   200000004 NGrid=           0
         NMat0=    1 NMatS0=      1 NMatT0=    0 NMatD0=    1 NMtDS0=    0 NMtDT0=    0
 Petite list used in FoFCou.
 Initial guess <Sx>= 0.0000 <Sy>= 0.0000 <Sz>= 2.0000 <S**2>= 6.0000 S= 2.0000
 Requested convergence on RMS density matrix=1.00D-08 within 999 cycles.
 Requested convergence on MAX density matrix=1.00D-06.
 Requested convergence on             energy=1.00D-06.
 No special actions if energy rises.
 EnCoef did   100 forward-backward iterations
 EnCoef did     6 forward-backward iterations
 EnCoef did     4 forward-backward iterations
 EnCoef did     2 forward-backward iterations
 EnCoef did     7 forward-backward iterations
 EnCoef did     8 forward-backward iterations
 Restarting incremental Fock formation.
 Restarting incremental Fock formation.
 Restarting incremental Fock formation.
 SCF Done:  E(UPBE1PBE) =  -3879.30570767     A.U. after   79 cycles
            NFock= 79  Conv=0.20D-08     -V/T= 2.0033
 <Sx>= 0.0000 <Sy>= 0.0000 <Sz>= 2.0000 <S**2>= 6.1646 S= 2.0327
 <L.S>= 0.000000000000E+00
 Annihilation of the first spin contaminant:
 S**2 before annihilation     6.1646,   after     6.0074

 **********************************************************************

            Population analysis using the SCF density.

 **********************************************************************

 Orbital symmetries:
 Alpha Orbitals:
       Occupied  (A) (A) (A) (A) (A) (A) (A) (A) (A) (A) (A) (A)
                 (A) (A) (A) (A) (A) (A) (A) (A) (A) (A) (A) (A)
                 (A) (A) (A) (A) (A) (A) (A) (A) (A) (A) (A) (A)
                 (A) (A) (A) (A) (A) (A) (A) (A) (A) (A) (A) (A)
                 (A) (A) (A) (A) (A) (A) (A) (A) (A) (A) (A) (A)
                 (A) (A) (A) (A) (A) (A) (A) (A) (A) (A) (A) (A)
                 (A) (A) (A) (A) (A) (A) (A) (A) (A) (A) (A) (A)
                 (A) (A) (A) (A) (A) (A) (A) (A) (A) (A) (A) (A)
                 (A) (A) (A) (A) (A) (A) (A) (A) (A) (A) (A) (A)
                 (A) (A) (A) (A) (A) (A) (A) (A) (A) (A) (A) (A)
                 (A) (A) (A) (A) (A) (A) (A) (A) (A) (A) (A) (A)
                 (A) (A) (A) (A) (A) (A) (A) (A) (A) (A) (A) (A)
                 (A) (A) (A) (A) (A) (A) (A) (A) (A) (A) (A) (A)
                 (A) (A) (A) (A) (A) (A) (A) (A) (A) (A) (A) (A)
                 (A) (A) (A) (A) (A) (A) (A) (A) (A) (A) (A) (A)
                 (A) (A) (A) (A) (A) (A) (A) (A) (A) (A) (A) (A)
                 (A) (A) (A) (A) (A) (A) (A) (A) (A) (A) (A) (A)
                 (A) (A)
       Virtual   (A) (A) (A) (A) (A) (A) (A) (A) (A) (A) (A) (A)
                 (A) (A) (A) (A) (A) (A) (A) (A) (A) (A) (A) (A)
                 (A) (A) (A) (A) (A) (A) (A) (A) (A) (A) (A) (A)
                 (A) (A) (A) (A) (A) (A) (A) (A) (A) (A) (A) (A)
                 (A) (A) (A) (A) (A) (A) (A) (A) (A) (A) (A) (A)
                 (A) (A) (A) (A) (A) (A) (A) (A) (A) (A) (A) (A)
                 (A) (A) (A) (A) (A) (A) (A) (A) (A) (A) (A) (A)
                 (A) (A) (A) (A) (A) (A) (A) (A) (A) (A) (A) (A)
                 (A) (A) (A) (A) (A) (A) (A) (A) (A) (A) (A) (A)
                 (A) (A) (A) (A) (A) (A) (A) (A) (A) (A) (A) (A)
                 (A) (A) (A) (A) (A) (A) (A) (A) (A) (A) (A) (A)
                 (A) (A) (A) (A) (A) (A) (A) (A) (A) (A) (A) (A)
                 (A) (A) (A) (A) (A) (A) (A) (A) (A) (A) (A) (A)
                 (A) (A) (A) (A) (A) (A) (A) (A) (A) (A) (A) (A)
                 (A) (A) (A) (A) (A) (A) (A) (A) (A) (A) (A) (A)
                 (A) (A) (A) (A) (A) (A) (A) (A) (A) (A) (A) (A)
                 (A) (A) (A) (A) (A) (A) (A) (A) (A) (A) (A) (A)
                 (A) (A) (A) (A) (A) (A) (A) (A) (A) (A) (A) (A)
                 (A) (A) (A) (A) (A) (A) (A) (A) (A) (A) (A) (A)
                 (A) (A) (A) (A) (A) (A) (A) (A) (A) (A) (A) (A)
                 (A) (A) (A) (A) (A) (A) (A) (A) (A) (A) (A) (A)
                 (A) (A) (A) (A) (A) (A) (A) (A) (A) (A) (A) (A)
                 (A) (A) (A) (A) (A) (A) (A) (A) (A) (A) (A) (A)
                 (A) (A) (A) (A) (A) (A) (A) (A) (A) (A) (A) (A)
                 (A) (A) (A) (A) (A) (A) (A) (A) (A) (A) (A) (A)
                 (A) (A) (A) (A) (A) (A) (A) (A) (A) (A) (A) (A)
                 (A) (A) (A) (A) (A) (A) (A) (A) (A) (A) (A) (A)
                 (A) (A) (A) (A) (A) (A) (A) (A) (A) (A) (A) (A)
                 (A) (A) (A) (A) (A) (A) (A) (A) (A) (A) (A) (A)
                 (A) (A) (A) (A) (A) (A) (A) (A) (A) (A) (A) (A)
                 (A) (A) (A) (A) (A) (A) (A) (A) (A) (A) (A) (A)
                 (A) (A) (A) (A) (A) (A) (A) (A) (A) (A) (A) (A)
                 (A) (A) (A) (A) (A) (A) (A) (A) (A) (A) (A) (A)
                 (A) (A) (A) (A) (A) (A) (A) (A) (A) (A) (A) (A)
                 (A) (A) (A) (A) (A) (A) (A) (A) (A) (A) (A) (A)
                 (A) (A) (A) (A) (A) (A) (A) (A) (A) (A) (A) (A)
                 (A) (A) (A) (A) (A) (A) (A) (A) (A) (A) (A) (A)
                 (A) (A) (A) (A) (A) (A) (A) (A) (A) (A) (A) (A)
                 (A) (A) (A) (A) (A) (A) (A) (A) (A) (A) (A) (A)
                 (A) (A) (A) (A) (A) (A) (A) (A) (A) (A) (A) (A)
                 (A) (A) (A) (A) (A) (A) (A) (A) (A) (A) (A) (A)
                 (A) (A) (A) (A) (A) (A) (A) (A) (A) (A) (A) (A)
                 (A) (A) (A) (A) (A) (A) (A) (A) (A) (A) (A) (A)
                 (A) (A) (A) (A) (A) (A) (A) (A) (A) (A) (A) (A)
                 (A) (A) (A) (A) (A) (A) (A) (A) (A) (A) (A) (A)
                 (A) (A) (A) (A) (A) (A) (A) (A) (A) (A) (A) (A)
                 (A) (A) (A) (A) (A) (A) (A) (A) (A) (A) (A) (A)
                 (A) (A) (A) (A) (A) (A) (A) (A) (A) (A) (A) (A)
                 (A) (A) (A) (A) (A) (A) (A) (A) (A) (A) (A) (A)
                 (A) (A) (A) (A) (A) (A) (A) (A) (A) (A) (A) (A)
                 (A) (A) (A) (A) (A) (A) (A) (A) (A) (A) (A) (A)
                 (A) (A) (A) (A) (A) (A) (A) (A) (A) (A) (A) (A)
                 (A) (A) (A) (A) (A) (A) (A) (A) (A) (A) (A) (A)
                 (A) (A) (A) (A) (A) (A) (A) (A) (A) (A) (A) (A)
                 (A) (A) (A) (A) (A) (A) (A) (A) (A) (A) (A) (A)
                 (A) (A) (A) (A) (A) (A) (A) (A) (A) (A) (A) (A)
                 (A) (A) (A) (A) (A) (A) (A) (A) (A) (A) (A) (A)
                 (A) (A) (A) (A) (A) (A) (A) (A) (A) (A) (A) (A)
                 (A) (A) (A) (A) (A) (A) (A) (A) (A) (A) (A) (A)
                 (A) (A) (A) (A) (A) (A) (A) (A) (A) (A) (A) (A)
                 (A) (A) (A) (A) (A) (A) (A) (A) (A) (A) (A) (A)
                 (A) (A) (A) (A) (A) (A) (A) (A) (A) (A) (A) (A)
                 (A) (A) (A) (A) (A) (A) (A) (A) (A) (A) (A) (A)
                 (A) (A) (A) (A) (A) (A) (A) (A) (A) (A) (A) (A)
                 (A) (A) (A) (A) (A) (A) (A) (A) (A) (A) (A) (A)
                 (A) (A) (A) (A) (A) (A) (A) (A) (A) (A) (A) (A)
                 (A) (A) (A) (A) (A) (A) (A) (A) (A) (A) (A) (A)
                 (A) (A) (A) (A) (A) (A) (A) (A) (A) (A) (A) (A)
                 (A) (A) (A) (A) (A) (A) (A) (A) (A) (A) (A) (A)
                 (A) (A) (A) (A) (A) (A) (A) (A) (A) (A) (A) (A)
                 (A) (A) (A) (A) (A) (A) (A) (A) (A) (A) (A) (A)
                 (A) (A) (A) (A) (A) (A) (A) (A) (A) (A) (A) (A)
                 (A) (A) (A) (A) (A) (A) (A) (A) (A) (A) (A) (A)
                 (A) (A) (A) (A) (A) (A) (A) (A) (A) (A) (A) (A)
                 (A) (A) (A) (A) (A) (A) (A) (A) (A) (A) (A) (A)
                 (A) (A) (A) (A) (A) (A) (A) (A) (A) (A) (A) (A)
                 (A) (A) (A) (A) (A) (A) (A) (A) (A) (A) (A) (A)
                 (A) (A) (A) (A) (A) (A) (A) (A) (A) (A) (A) (A)
                 (A) (A) (A) (A) (A) (A) (A) (A) (A) (A) (A) (A)
                 (A) (A) (A) (A) (A) (A) (A) (A) (A) (A) (A) (A)
                 (A) (A) (A) (A) (A) (A) (A) (A) (A) (A) (A) (A)
                 (A) (A) (A) (A) (A) (A) (A) (A) (A) (A) (A) (A)
                 (A) (A) (A) (A) (A) (A) (A) (A) (A) (A) (A) (A)
                 (A) (A) (A) (A) (A) (A) (A) (A) (A) (A) (A) (A)
                 (A) (A) (A) (A) (A) (A) (A) (A) (A) (A) (A) (A)
                 (A) (A) (A) (A) (A) (A) (A) (A) (A) (A) (A) (A)
                 (A) (A) (A) (A) (A) (A) (A) (A) (A) (A) (A) (A)
                 (A) (A) (A) (A) (A) (A) (A) (A) (A) (A) (A) (A)
                 (A) (A) (A) (A) (A) (A) (A) (A) (A) (A) (A) (A)
                 (A) (A) (A) (A) (A) (A) (A) (A) (A) (A) (A) (A)
                 (A) (A) (A) (A) (A) (A) (A) (A) (A) (A) (A) (A)
                 (A) (A) (A) (A) (A) (A) (A) (A) (A) (A) (A) (A)
                 (A) (A) (A) (A) (A) (A) (A) (A) (A) (A) (A) (A)
                 (A) (A) (A) (A) (A) (A) (A) (A) (A) (A) (A) (A)
                 (A) (A) (A) (A) (A) (A) (A) (A) (A) (A) (A) (A)
                 (A) (A) (A) (A) (A) (A) (A) (A) (A) (A) (A) (A)
                 (A) (A) (A) (A) (A) (A) (A) (A) (A) (A) (A) (A)
                 (A) (A) (A) (A) (A) (A) (A) (A) (A) (A) (A) (A)
                 (A) (A) (A) (A) (A) (A) (A) (A) (A) (A) (A) (A)
                 (A) (A) (A) (A) (A) (A) (A) (A) (A) (A) (A) (A)
                 (A) (A) (A) (A) (A) (A) (A) (A) (A) (A) (A) (A)
                 (A) (A) (A) (A) (A) (A) (A) (A) (A) (A) (A) (A)
                 (A) (A) (A) (A) (A) (A) (A) (A) (A) (A) (A) (A)
                 (A) (A) (A) (A) (A) (A) (A) (A) (A) (A) (A) (A)
                 (A) (A) (A) (A) (A) (A) (A) (A) (A) (A) (A) (A)
                 (A) (A) (A) (A) (A) (A) (A) (A) (A) (A) (A) (A)
                 (A) (A) (A) (A) (A) (A) (A) (A) (A) (A) (A) (A)
                 (A) (A) (A) (A) (A) (A) (A) (A) (A) (A) (A) (A)
                 (A) (A) (A) (A) (A) (A) (A) (A) (A) (A) (A) (A)
                 (A) (A) (A) (A) (A) (A) (A) (A) (A) (A) (A) (A)
                 (A) (A) (A) (A) (A) (A) (A) (A) (A) (A) (A) (A)
                 (A) (A) (A) (A) (A) (A) (A) (A) (A) (A) (A) (A)
                 (A) (A) (A) (A) (A) (A) (A) (A) (A) (A) (A) (A)
                 (A) (A) (A) (A) (A) (A) (A) (A) (A) (A) (A) (A)
                 (A) (A) (A) (A) (A) (A) (A) (A) (A) (A) (A) (A)
                 (A) (A) (A) (A) (A) (A) (A) (A) (A) (A) (A) (A)
                 (A) (A) (A) (A) (A) (A) (A) (A) (A) (A) (A) (A)
                 (A) (A) (A) (A) (A) (A) (A) (A) (A) (A) (A) (A)
                 (A) (A) (A) (A) (A) (A) (A) (A) (A) (A) (A) (A)
                 (A) (A) (A) (A) (A) (A) (A) (A) (A) (A) (A) (A)
                 (A) (A) (A) (A) (A) (A) (A) (A) (A) (A) (A) (A)
                 (A) (A) (A) (A) (A) (A) (A) (A) (A) (A) (A) (A)
                 (A) (A) (A) (A) (A) (A) (A) (A) (A) (A) (A) (A)
                 (A) (A) (A) (A) (A) (A) (A) (A) (A) (A) (A) (A)
                 (A) (A) (A) (A) (A) (A) (A) (A) (A) (A) (A) (A)
                 (A) (A) (A) (A) (A) (A) (A) (A) (A) (A) (A) (A)
                 (A) (A) (A) (A) (A) (A) (A) (A) (A) (A) (A) (A)
                 (A) (A) (A) (A) (A) (A) (A) (A) (A) (A) (A) (A)
                 (A) (A) (A) (A) (A) (A) (A) (A) (A) (A) (A) (A)
                 (A) (A) (A) (A) (A) (A) (A) (A) (A) (A) (A) (A)
                 (A) (A) (A) (A) (A) (A) (A) (A) (A) (A) (A) (A)
                 (A) (A) (A) (A) (A) (A) (A) (A) (A) (A) (A) (A)
                 (A) (A) (A) (A) (A) (A) (A) (A) (A) (A) (A) (A)
                 (A) (A) (A) (A) (A) (A) (A) (A) (A) (A) (A) (A)
                 (A) (A) (A) (A) (A) (A) (A) (A) (A) (A) (A) (A)
                 (A) (A) (A) (A) (A) (A) (A) (A) (A) (A) (A) (A)
                 (A) (A) (A) (A) (A) (A) (A) (A) (A) (A) (A) (A)
                 (A) (A) (A) (A) (A) (A) (A) (A) (A) (A) (A) (A)
                 (A) (A) (A) (A) (A) (A) (A) (A) (A) (A) (A) (A)
                 (A) (A) (A) (A) (A) (A) (A) (A) (A) (A) (A) (A)
                 (A) (A) (A) (A) (A) (A) (A) (A) (A) (A) (A) (A)
                 (A) (A) (A) (A) (A) (A) (A) (A) (A) (A) (A) (A)
                 (A) (A) (A) (A) (A) (A) (A) (A) (A) (A) (A) (A)
                 (A) (A) (A) (A) (A) (A) (A) (A) (A) (A) (A) (A)
                 (A) (A) (A) (A) (A)
 Beta  Orbitals:
       Occupied  (A) (A) (A) (A) (A) (A) (A) (A) (A) (A) (A) (A)
                 (A) (A) (A) (A) (A) (A) (A) (A) (A) (A) (A) (A)
                 (A) (A) (A) (A) (A) (A) (A) (A) (A) (A) (A) (A)
                 (A) (A) (A) (A) (A) (A) (A) (A) (A) (A) (A) (A)
                 (A) (A) (A) (A) (A) (A) (A) (A) (A) (A) (A) (A)
                 (A) (A) (A) (A) (A) (A) (A) (A) (A) (A) (A) (A)
                 (A) (A) (A) (A) (A) (A) (A) (A) (A) (A) (A) (A)
                 (A) (A) (A) (A) (A) (A) (A) (A) (A) (A) (A) (A)
                 (A) (A) (A) (A) (A) (A) (A) (A) (A) (A) (A) (A)
                 (A) (A) (A) (A) (A) (A) (A) (A) (A) (A) (A) (A)
                 (A) (A) (A) (A) (A) (A) (A) (A) (A) (A) (A) (A)
                 (A) (A) (A) (A) (A) (A) (A) (A) (A) (A) (A) (A)
                 (A) (A) (A) (A) (A) (A) (A) (A) (A) (A) (A) (A)
                 (A) (A) (A) (A) (A) (A) (A) (A) (A) (A) (A) (A)
                 (A) (A) (A) (A) (A) (A) (A) (A) (A) (A) (A) (A)
                 (A) (A) (A) (A) (A) (A) (A) (A) (A) (A) (A) (A)
                 (A) (A) (A) (A) (A) (A) (A) (A) (A) (A)
       Virtual   (A) (A) (A) (A) (A) (A) (A) (A) (A) (A) (A) (A)
                 (A) (A) (A) (A) (A) (A) (A) (A) (A) (A) (A) (A)
                 (A) (A) (A) (A) (A) (A) (A) (A) (A) (A) (A) (A)
                 (A) (A) (A) (A) (A) (A) (A) (A) (A) (A) (A) (A)
                 (A) (A) (A) (A) (A) (A) (A) (A) (A) (A) (A) (A)
                 (A) (A) (A) (A) (A) (A) (A) (A) (A) (A) (A) (A)
                 (A) (A) (A) (A) (A) (A) (A) (A) (A) (A) (A) (A)
                 (A) (A) (A) (A) (A) (A) (A) (A) (A) (A) (A) (A)
                 (A) (A) (A) (A) (A) (A) (A) (A) (A) (A) (A) (A)
                 (A) (A) (A) (A) (A) (A) (A) (A) (A) (A) (A) (A)
                 (A) (A) (A) (A) (A) (A) (A) (A) (A) (A) (A) (A)
                 (A) (A) (A) (A) (A) (A) (A) (A) (A) (A) (A) (A)
                 (A) (A) (A) (A) (A) (A) (A) (A) (A) (A) (A) (A)
                 (A) (A) (A) (A) (A) (A) (A) (A) (A) (A) (A) (A)
                 (A) (A) (A) (A) (A) (A) (A) (A) (A) (A) (A) (A)
                 (A) (A) (A) (A) (A) (A) (A) (A) (A) (A) (A) (A)
                 (A) (A) (A) (A) (A) (A) (A) (A) (A) (A) (A) (A)
                 (A) (A) (A) (A) (A) (A) (A) (A) (A) (A) (A) (A)
                 (A) (A) (A) (A) (A) (A) (A) (A) (A) (A) (A) (A)
                 (A) (A) (A) (A) (A) (A) (A) (A) (A) (A) (A) (A)
                 (A) (A) (A) (A) (A) (A) (A) (A) (A) (A) (A) (A)
                 (A) (A) (A) (A) (A) (A) (A) (A) (A) (A) (A) (A)
                 (A) (A) (A) (A) (A) (A) (A) (A) (A) (A) (A) (A)
                 (A) (A) (A) (A) (A) (A) (A) (A) (A) (A) (A) (A)
                 (A) (A) (A) (A) (A) (A) (A) (A) (A) (A) (A) (A)
                 (A) (A) (A) (A) (A) (A) (A) (A) (A) (A) (A) (A)
                 (A) (A) (A) (A) (A) (A) (A) (A) (A) (A) (A) (A)
                 (A) (A) (A) (A) (A) (A) (A) (A) (A) (A) (A) (A)
                 (A) (A) (A) (A) (A) (A) (A) (A) (A) (A) (A) (A)
                 (A) (A) (A) (A) (A) (A) (A) (A) (A) (A) (A) (A)
                 (A) (A) (A) (A) (A) (A) (A) (A) (A) (A) (A) (A)
                 (A) (A) (A) (A) (A) (A) (A) (A) (A) (A) (A) (A)
                 (A) (A) (A) (A) (A) (A) (A) (A) (A) (A) (A) (A)
                 (A) (A) (A) (A) (A) (A) (A) (A) (A) (A) (A) (A)
                 (A) (A) (A) (A) (A) (A) (A) (A) (A) (A) (A) (A)
                 (A) (A) (A) (A) (A) (A) (A) (A) (A) (A) (A) (A)
                 (A) (A) (A) (A) (A) (A) (A) (A) (A) (A) (A) (A)
                 (A) (A) (A) (A) (A) (A) (A) (A) (A) (A) (A) (A)
                 (A) (A) (A) (A) (A) (A) (A) (A) (A) (A) (A) (A)
                 (A) (A) (A) (A) (A) (A) (A) (A) (A) (A) (A) (A)
                 (A) (A) (A) (A) (A) (A) (A) (A) (A) (A) (A) (A)
                 (A) (A) (A) (A) (A) (A) (A) (A) (A) (A) (A) (A)
                 (A) (A) (A) (A) (A) (A) (A) (A) (A) (A) (A) (A)
                 (A) (A) (A) (A) (A) (A) (A) (A) (A) (A) (A) (A)
                 (A) (A) (A) (A) (A) (A) (A) (A) (A) (A) (A) (A)
                 (A) (A) (A) (A) (A) (A) (A) (A) (A) (A) (A) (A)
                 (A) (A) (A) (A) (A) (A) (A) (A) (A) (A) (A) (A)
                 (A) (A) (A) (A) (A) (A) (A) (A) (A) (A) (A) (A)
                 (A) (A) (A) (A) (A) (A) (A) (A) (A) (A) (A) (A)
                 (A) (A) (A) (A) (A) (A) (A) (A) (A) (A) (A) (A)
                 (A) (A) (A) (A) (A) (A) (A) (A) (A) (A) (A) (A)
                 (A) (A) (A) (A) (A) (A) (A) (A) (A) (A) (A) (A)
                 (A) (A) (A) (A) (A) (A) (A) (A) (A) (A) (A) (A)
                 (A) (A) (A) (A) (A) (A) (A) (A) (A) (A) (A) (A)
                 (A) (A) (A) (A) (A) (A) (A) (A) (A) (A) (A) (A)
                 (A) (A) (A) (A) (A) (A) (A) (A) (A) (A) (A) (A)
                 (A) (A) (A) (A) (A) (A) (A) (A) (A) (A) (A) (A)
                 (A) (A) (A) (A) (A) (A) (A) (A) (A) (A) (A) (A)
                 (A) (A) (A) (A) (A) (A) (A) (A) (A) (A) (A) (A)
                 (A) (A) (A) (A) (A) (A) (A) (A) (A) (A) (A) (A)
                 (A) (A) (A) (A) (A) (A) (A) (A) (A) (A) (A) (A)
                 (A) (A) (A) (A) (A) (A) (A) (A) (A) (A) (A) (A)
                 (A) (A) (A) (A) (A) (A) (A) (A) (A) (A) (A) (A)
                 (A) (A) (A) (A) (A) (A) (A) (A) (A) (A) (A) (A)
                 (A) (A) (A) (A) (A) (A) (A) (A) (A) (A) (A) (A)
                 (A) (A) (A) (A) (A) (A) (A) (A) (A) (A) (A) (A)
                 (A) (A) (A) (A) (A) (A) (A) (A) (A) (A) (A) (A)
                 (A) (A) (A) (A) (A) (A) (A) (A) (A) (A) (A) (A)
                 (A) (A) (A) (A) (A) (A) (A) (A) (A) (A) (A) (A)
                 (A) (A) (A) (A) (A) (A) (A) (A) (A) (A) (A) (A)
                 (A) (A) (A) (A) (A) (A) (A) (A) (A) (A) (A) (A)
                 (A) (A) (A) (A) (A) (A) (A) (A) (A) (A) (A) (A)
                 (A) (A) (A) (A) (A) (A) (A) (A) (A) (A) (A) (A)
                 (A) (A) (A) (A) (A) (A) (A) (A) (A) (A) (A) (A)
                 (A) (A) (A) (A) (A) (A) (A) (A) (A) (A) (A) (A)
                 (A) (A) (A) (A) (A) (A) (A) (A) (A) (A) (A) (A)
                 (A) (A) (A) (A) (A) (A) (A) (A) (A) (A) (A) (A)
                 (A) (A) (A) (A) (A) (A) (A) (A) (A) (A) (A) (A)
                 (A) (A) (A) (A) (A) (A) (A) (A) (A) (A) (A) (A)
                 (A) (A) (A) (A) (A) (A) (A) (A) (A) (A) (A) (A)
                 (A) (A) (A) (A) (A) (A) (A) (A) (A) (A) (A) (A)
                 (A) (A) (A) (A) (A) (A) (A) (A) (A) (A) (A) (A)
                 (A) (A) (A) (A) (A) (A) (A) (A) (A) (A) (A) (A)
                 (A) (A) (A) (A) (A) (A) (A) (A) (A) (A) (A) (A)
                 (A) (A) (A) (A) (A) (A) (A) (A) (A) (A) (A) (A)
                 (A) (A) (A) (A) (A) (A) (A) (A) (A) (A) (A) (A)
                 (A) (A) (A) (A) (A) (A) (A) (A) (A) (A) (A) (A)
                 (A) (A) (A) (A) (A) (A) (A) (A) (A) (A) (A) (A)
                 (A) (A) (A) (A) (A) (A) (A) (A) (A) (A) (A) (A)
                 (A) (A) (A) (A) (A) (A) (A) (A) (A) (A) (A) (A)
                 (A) (A) (A) (A) (A) (A) (A) (A) (A) (A) (A) (A)
                 (A) (A) (A) (A) (A) (A) (A) (A) (A) (A) (A) (A)
                 (A) (A) (A) (A) (A) (A) (A) (A) (A) (A) (A) (A)
                 (A) (A) (A) (A) (A) (A) (A) (A) (A) (A) (A) (A)
                 (A) (A) (A) (A) (A) (A) (A) (A) (A) (A) (A) (A)
                 (A) (A) (A) (A) (A) (A) (A) (A) (A) (A) (A) (A)
                 (A) (A) (A) (A) (A) (A) (A) (A) (A) (A) (A) (A)
                 (A) (A) (A) (A) (A) (A) (A) (A) (A) (A) (A) (A)
                 (A) (A) (A) (A) (A) (A) (A) (A) (A) (A) (A) (A)
                 (A) (A) (A) (A) (A) (A) (A) (A) (A) (A) (A) (A)
                 (A) (A) (A) (A) (A) (A) (A) (A) (A) (A) (A) (A)
                 (A) (A) (A) (A) (A) (A) (A) (A) (A) (A) (A) (A)
                 (A) (A) (A) (A) (A) (A) (A) (A) (A) (A) (A) (A)
                 (A) (A) (A) (A) (A) (A) (A) (A) (A) (A) (A) (A)
                 (A) (A) (A) (A) (A) (A) (A) (A) (A) (A) (A) (A)
                 (A) (A) (A) (A) (A) (A) (A) (A) (A) (A) (A) (A)
                 (A) (A) (A) (A) (A) (A) (A) (A) (A) (A) (A) (A)
                 (A) (A) (A) (A) (A) (A) (A) (A) (A) (A) (A) (A)
                 (A) (A) (A) (A) (A) (A) (A) (A) (A) (A) (A) (A)
                 (A) (A) (A) (A) (A) (A) (A) (A) (A) (A) (A) (A)
                 (A) (A) (A) (A) (A) (A) (A) (A) (A) (A) (A) (A)
                 (A) (A) (A) (A) (A) (A) (A) (A) (A) (A) (A) (A)
                 (A) (A) (A) (A) (A) (A) (A) (A) (A) (A) (A) (A)
                 (A) (A) (A) (A) (A) (A) (A) (A) (A) (A) (A) (A)
                 (A) (A) (A) (A) (A) (A) (A) (A) (A) (A) (A) (A)
                 (A) (A) (A) (A) (A) (A) (A) (A) (A) (A) (A) (A)
                 (A) (A) (A) (A) (A) (A) (A) (A) (A) (A) (A) (A)
                 (A) (A) (A) (A) (A) (A) (A) (A) (A) (A) (A) (A)
                 (A) (A) (A) (A) (A) (A) (A) (A) (A) (A) (A) (A)
                 (A) (A) (A) (A) (A) (A) (A) (A) (A) (A) (A) (A)
                 (A) (A) (A) (A) (A) (A) (A) (A) (A) (A) (A) (A)
                 (A) (A) (A) (A) (A) (A) (A) (A) (A) (A) (A) (A)
                 (A) (A) (A) (A) (A) (A) (A) (A) (A) (A) (A) (A)
                 (A) (A) (A) (A) (A) (A) (A) (A) (A) (A) (A) (A)
                 (A) (A) (A) (A) (A) (A) (A) (A) (A) (A) (A) (A)
                 (A) (A) (A) (A) (A) (A) (A) (A) (A) (A) (A) (A)
                 (A) (A) (A) (A) (A) (A) (A) (A) (A) (A) (A) (A)
                 (A) (A) (A) (A) (A) (A) (A) (A) (A) (A) (A) (A)
                 (A) (A) (A) (A) (A) (A) (A) (A) (A) (A) (A) (A)
                 (A) (A) (A) (A) (A) (A) (A) (A) (A) (A) (A) (A)
                 (A) (A) (A) (A) (A) (A) (A) (A) (A) (A) (A) (A)
                 (A) (A) (A) (A) (A) (A) (A) (A) (A) (A) (A) (A)
                 (A) (A) (A) (A) (A) (A) (A) (A) (A) (A) (A) (A)
                 (A) (A) (A) (A) (A) (A) (A) (A) (A) (A) (A) (A)
                 (A) (A) (A) (A) (A) (A) (A) (A) (A) (A) (A) (A)
                 (A) (A) (A) (A) (A) (A) (A) (A) (A) (A) (A) (A)
                 (A) (A) (A) (A) (A) (A) (A) (A) (A) (A) (A) (A)
                 (A) (A) (A) (A) (A) (A) (A) (A) (A) (A) (A) (A)
                 (A) (A) (A) (A) (A) (A) (A) (A) (A) (A) (A) (A)
                 (A) (A) (A) (A) (A) (A) (A) (A) (A) (A) (A) (A)
                 (A) (A) (A) (A) (A) (A) (A) (A) (A) (A) (A) (A)
                 (A) (A) (A) (A) (A) (A) (A) (A) (A) (A) (A) (A)
                 (A) (A) (A) (A) (A) (A) (A) (A) (A) (A) (A) (A)
                 (A) (A) (A) (A) (A) (A) (A) (A) (A) (A) (A) (A)
                 (A) (A) (A) (A) (A) (A) (A) (A) (A)
 The electronic state is 5-A.
 Alpha  occ. eigenvalues -- -256.32426 -89.00789 -30.11608 -25.94373 -25.94232
 Alpha  occ. eigenvalues --  -25.92744 -19.26242 -19.25879 -19.18666 -19.16629
 Alpha  occ. eigenvalues --  -14.44813 -14.38182 -14.37839 -14.37756 -14.37448
 Alpha  occ. eigenvalues --  -14.37196 -10.35627 -10.34333 -10.27778 -10.26077
 Alpha  occ. eigenvalues --  -10.25643 -10.25583 -10.25109 -10.24920 -10.24881
 Alpha  occ. eigenvalues --  -10.24877 -10.24811 -10.24759 -10.24191 -10.23616
 Alpha  occ. eigenvalues --  -10.23475 -10.23314 -10.23311 -10.23293 -10.23181
 Alpha  occ. eigenvalues --  -10.23093 -10.23074 -10.23059 -10.23038 -10.23027
 Alpha  occ. eigenvalues --  -10.22993 -10.22953 -10.22875 -10.22520 -10.22388
 Alpha  occ. eigenvalues --  -10.22344 -10.22300 -10.22243 -10.22165 -10.21858
 Alpha  occ. eigenvalues --  -10.21730 -10.21713 -10.21652 -10.21559 -10.21525
 Alpha  occ. eigenvalues --  -10.21271 -10.20519  -7.98735  -5.92391  -5.92081
 Alpha  occ. eigenvalues --   -5.91558  -3.50354  -2.28594  -2.27049  -2.23095
 Alpha  occ. eigenvalues --   -1.17790  -1.15907  -1.06547  -1.03196  -1.01435
 Alpha  occ. eigenvalues --   -0.97203  -0.96358  -0.95778  -0.94960  -0.90668
 Alpha  occ. eigenvalues --   -0.84036  -0.83738  -0.83277  -0.82977  -0.82540
 Alpha  occ. eigenvalues --   -0.82185  -0.81597  -0.80549  -0.80341  -0.79082
 Alpha  occ. eigenvalues --   -0.77999  -0.77531  -0.76313  -0.76255  -0.74806
 Alpha  occ. eigenvalues --   -0.73819  -0.72818  -0.72630  -0.71786  -0.71678
 Alpha  occ. eigenvalues --   -0.70581  -0.69365  -0.68837  -0.67512  -0.66577
 Alpha  occ. eigenvalues --   -0.66082  -0.65324  -0.64714  -0.64672  -0.62998
 Alpha  occ. eigenvalues --   -0.62354  -0.62250  -0.59879  -0.58720  -0.57344
 Alpha  occ. eigenvalues --   -0.56669  -0.56090  -0.54778  -0.54427  -0.53789
 Alpha  occ. eigenvalues --   -0.53449  -0.52701  -0.52111  -0.51961  -0.51127
 Alpha  occ. eigenvalues --   -0.50556  -0.49911  -0.49778  -0.48702  -0.48653
 Alpha  occ. eigenvalues --   -0.48342  -0.48155  -0.47947  -0.47874  -0.47263
 Alpha  occ. eigenvalues --   -0.46555  -0.46468  -0.46070  -0.45791  -0.45177
 Alpha  occ. eigenvalues --   -0.44828  -0.44657  -0.44547  -0.44383  -0.44226
 Alpha  occ. eigenvalues --   -0.44101  -0.43951  -0.43779  -0.43616  -0.43532
 Alpha  occ. eigenvalues --   -0.43415  -0.43328  -0.43107  -0.42944  -0.42621
 Alpha  occ. eigenvalues --   -0.42536  -0.42342  -0.41842  -0.41683  -0.41329
 Alpha  occ. eigenvalues --   -0.40893  -0.40534  -0.39922  -0.39760  -0.39652
 Alpha  occ. eigenvalues --   -0.39508  -0.39259  -0.39126  -0.38716  -0.38428
 Alpha  occ. eigenvalues --   -0.38270  -0.38213  -0.37844  -0.37604  -0.37121
 Alpha  occ. eigenvalues --   -0.36987  -0.36575  -0.36345  -0.36138  -0.35775
 Alpha  occ. eigenvalues --   -0.35718  -0.35459  -0.34648  -0.34255  -0.33608
 Alpha  occ. eigenvalues --   -0.33228  -0.32775  -0.32455  -0.32379  -0.31544
 Alpha  occ. eigenvalues --   -0.31304  -0.31225  -0.29038  -0.28817  -0.28441
 Alpha  occ. eigenvalues --   -0.28336  -0.27980  -0.26711  -0.26583  -0.25904
 Alpha  occ. eigenvalues --   -0.25514  -0.25199  -0.24436  -0.23724  -0.22991
 Alpha  occ. eigenvalues --   -0.22278  -0.21547  -0.19641  -0.19064  -0.16904
 Alpha  occ. eigenvalues --   -0.16559
 Alpha virt. eigenvalues --   -0.08070  -0.06724  -0.04259  -0.02213  -0.00593
 Alpha virt. eigenvalues --    0.00068   0.00901   0.01734   0.02399   0.02555
 Alpha virt. eigenvalues --    0.03027   0.03959   0.04401   0.04517   0.04584
 Alpha virt. eigenvalues --    0.04953   0.05391   0.05663   0.05961   0.06320
 Alpha virt. eigenvalues --    0.06574   0.06613   0.07093   0.07197   0.07679
 Alpha virt. eigenvalues --    0.07830   0.08072   0.08088   0.08466   0.08975
 Alpha virt. eigenvalues --    0.09413   0.09588   0.09754   0.10264   0.10373
 Alpha virt. eigenvalues --    0.10614   0.10642   0.10928   0.11239   0.11421
 Alpha virt. eigenvalues --    0.11782   0.12059   0.12420   0.12603   0.12728
 Alpha virt. eigenvalues --    0.13096   0.13120   0.13333   0.13515   0.13712
 Alpha virt. eigenvalues --    0.13739   0.13864   0.13895   0.14120   0.14326
 Alpha virt. eigenvalues --    0.14561   0.14711   0.14911   0.15226   0.15272
 Alpha virt. eigenvalues --    0.15373   0.15590   0.15917   0.16140   0.16336
 Alpha virt. eigenvalues --    0.16368   0.16607   0.16752   0.17124   0.17539
 Alpha virt. eigenvalues --    0.17730   0.17893   0.18136   0.18299   0.18480
 Alpha virt. eigenvalues --    0.18692   0.19040   0.19169   0.19303   0.19642
 Alpha virt. eigenvalues --    0.19843   0.20268   0.20405   0.20497   0.20768
 Alpha virt. eigenvalues --    0.20864   0.20934   0.21326   0.21586   0.21739
 Alpha virt. eigenvalues --    0.21816   0.22047   0.22200   0.22417   0.22822
 Alpha virt. eigenvalues --    0.22907   0.23113   0.23254   0.23673   0.23718
 Alpha virt. eigenvalues --    0.23891   0.24017   0.24230   0.24298   0.24545
 Alpha virt. eigenvalues --    0.24774   0.24935   0.25330   0.25390   0.25774
 Alpha virt. eigenvalues --    0.25995   0.26021   0.26331   0.26611   0.26790
 Alpha virt. eigenvalues --    0.26888   0.26960   0.27289   0.27371   0.27711
 Alpha virt. eigenvalues --    0.28095   0.28330   0.28510   0.28688   0.28848
 Alpha virt. eigenvalues --    0.29014   0.29159   0.29406   0.29701   0.29837
 Alpha virt. eigenvalues --    0.29936   0.30172   0.30452   0.30583   0.31057
 Alpha virt. eigenvalues --    0.31063   0.31513   0.31684   0.31869   0.32121
 Alpha virt. eigenvalues --    0.32304   0.32460   0.32806   0.33375   0.33463
 Alpha virt. eigenvalues --    0.33537   0.33752   0.33852   0.34023   0.34285
 Alpha virt. eigenvalues --    0.34873   0.35246   0.35437   0.35575   0.35785
 Alpha virt. eigenvalues --    0.35981   0.36400   0.36560   0.36619   0.36850
 Alpha virt. eigenvalues --    0.37027   0.37292   0.37445   0.37557   0.37727
 Alpha virt. eigenvalues --    0.38063   0.38308   0.38739   0.38784   0.39206
 Alpha virt. eigenvalues --    0.39340   0.39408   0.39563   0.39922   0.40035
 Alpha virt. eigenvalues --    0.40063   0.40550   0.40594   0.40623   0.40694
 Alpha virt. eigenvalues --    0.41016   0.41246   0.41349   0.41574   0.41730
 Alpha virt. eigenvalues --    0.41784   0.41953   0.42091   0.42359   0.42644
 Alpha virt. eigenvalues --    0.42757   0.42876   0.42990   0.43175   0.43408
 Alpha virt. eigenvalues --    0.43747   0.43811   0.44147   0.44199   0.44380
 Alpha virt. eigenvalues --    0.44522   0.44586   0.44770   0.44892   0.45156
 Alpha virt. eigenvalues --    0.45383   0.45462   0.45618   0.45791   0.45849
 Alpha virt. eigenvalues --    0.46181   0.46322   0.46372   0.46673   0.46852
 Alpha virt. eigenvalues --    0.46945   0.47206   0.47364   0.47577   0.47727
 Alpha virt. eigenvalues --    0.47878   0.48129   0.48224   0.48365   0.48548
 Alpha virt. eigenvalues --    0.48647   0.48790   0.48895   0.49016   0.49314
 Alpha virt. eigenvalues --    0.49502   0.49550   0.49671   0.49845   0.49990
 Alpha virt. eigenvalues --    0.50213   0.50391   0.50622   0.50921   0.50985
 Alpha virt. eigenvalues --    0.51262   0.51406   0.51590   0.51861   0.52173
 Alpha virt. eigenvalues --    0.52223   0.52401   0.52568   0.52942   0.53018
 Alpha virt. eigenvalues --    0.53179   0.53528   0.53617   0.53883   0.54024
 Alpha virt. eigenvalues --    0.54327   0.54467   0.54535   0.54570   0.54915
 Alpha virt. eigenvalues --    0.55137   0.55280   0.55674   0.55823   0.56054
 Alpha virt. eigenvalues --    0.56115   0.56194   0.56437   0.56716   0.56946
 Alpha virt. eigenvalues --    0.57190   0.57296   0.57604   0.57710   0.57769
 Alpha virt. eigenvalues --    0.58065   0.58127   0.58575   0.58588   0.58844
 Alpha virt. eigenvalues --    0.59270   0.59632   0.59826   0.60036   0.60193
 Alpha virt. eigenvalues --    0.60318   0.60667   0.60810   0.60983   0.61299
 Alpha virt. eigenvalues --    0.61635   0.62014   0.62102   0.62359   0.62974
 Alpha virt. eigenvalues --    0.63218   0.63559   0.63747   0.63912   0.64207
 Alpha virt. eigenvalues --    0.64323   0.64481   0.64813   0.65046   0.65459
 Alpha virt. eigenvalues --    0.65752   0.66195   0.66460   0.66753   0.66970
 Alpha virt. eigenvalues --    0.67198   0.67316   0.67815   0.68131   0.68546
 Alpha virt. eigenvalues --    0.68852   0.69076   0.69187   0.69323   0.69590
 Alpha virt. eigenvalues --    0.69842   0.70132   0.70329   0.70674   0.70843
 Alpha virt. eigenvalues --    0.71106   0.71373   0.71507   0.71736   0.71916
 Alpha virt. eigenvalues --    0.72437   0.72644   0.72869   0.73085   0.73376
 Alpha virt. eigenvalues --    0.73521   0.73771   0.73999   0.74286   0.74565
 Alpha virt. eigenvalues --    0.74889   0.74947   0.75823   0.76039   0.76195
 Alpha virt. eigenvalues --    0.76642   0.76735   0.76903   0.77066   0.77412
 Alpha virt. eigenvalues --    0.77567   0.77901   0.78403   0.78645   0.79185
 Alpha virt. eigenvalues --    0.79468   0.79732   0.79961   0.80428   0.80612
 Alpha virt. eigenvalues --    0.80928   0.81227   0.81316   0.81876   0.81936
 Alpha virt. eigenvalues --    0.82358   0.82407   0.82648   0.83565   0.83633
 Alpha virt. eigenvalues --    0.84105   0.84235   0.84311   0.84717   0.84870
 Alpha virt. eigenvalues --    0.85338   0.85756   0.85951   0.86345   0.86719
 Alpha virt. eigenvalues --    0.86893   0.87070   0.87191   0.87448   0.87624
 Alpha virt. eigenvalues --    0.87876   0.88329   0.88614   0.88831   0.89369
 Alpha virt. eigenvalues --    0.89630   0.89808   0.89971   0.90422   0.90706
 Alpha virt. eigenvalues --    0.90890   0.91241   0.91486   0.91968   0.92266
 Alpha virt. eigenvalues --    0.92376   0.92731   0.92833   0.92991   0.93150
 Alpha virt. eigenvalues --    0.93420   0.93701   0.93888   0.94232   0.94641
 Alpha virt. eigenvalues --    0.94824   0.95110   0.95317   0.95595   0.95623
 Alpha virt. eigenvalues --    0.95752   0.96355   0.96517   0.96761   0.96892
 Alpha virt. eigenvalues --    0.97204   0.97506   0.97718   0.97850   0.98203
 Alpha virt. eigenvalues --    0.98648   0.98866   0.98948   0.99223   0.99390
 Alpha virt. eigenvalues --    0.99602   0.99968   1.00050   1.00627   1.00934
 Alpha virt. eigenvalues --    1.01282   1.01437   1.01678   1.02009   1.02281
 Alpha virt. eigenvalues --    1.02553   1.03003   1.03078   1.03484   1.03874
 Alpha virt. eigenvalues --    1.04097   1.04169   1.04369   1.04745   1.04906
 Alpha virt. eigenvalues --    1.05318   1.05773   1.05960   1.06277   1.06475
 Alpha virt. eigenvalues --    1.06641   1.07095   1.07226   1.07641   1.08170
 Alpha virt. eigenvalues --    1.08308   1.08355   1.08634   1.09253   1.09444
 Alpha virt. eigenvalues --    1.10026   1.10244   1.10413   1.10804   1.11328
 Alpha virt. eigenvalues --    1.11457   1.11573   1.12118   1.12271   1.12478
 Alpha virt. eigenvalues --    1.12678   1.13390   1.13522   1.13924   1.14507
 Alpha virt. eigenvalues --    1.14617   1.14824   1.15253   1.15503   1.15725
 Alpha virt. eigenvalues --    1.15905   1.16564   1.17167   1.17421   1.17896
 Alpha virt. eigenvalues --    1.17921   1.18599   1.18880   1.19176   1.19519
 Alpha virt. eigenvalues --    1.19756   1.19926   1.20192   1.20882   1.21532
 Alpha virt. eigenvalues --    1.21832   1.21984   1.22238   1.22465   1.22716
 Alpha virt. eigenvalues --    1.23277   1.23546   1.23749   1.24011   1.24256
 Alpha virt. eigenvalues --    1.24919   1.25178   1.25509   1.25733   1.26215
 Alpha virt. eigenvalues --    1.26815   1.27193   1.27700   1.27953   1.28133
 Alpha virt. eigenvalues --    1.28405   1.28679   1.28888   1.29357   1.29523
 Alpha virt. eigenvalues --    1.30067   1.30411   1.30493   1.30731   1.31339
 Alpha virt. eigenvalues --    1.32075   1.32574   1.32710   1.33162   1.33319
 Alpha virt. eigenvalues --    1.33722   1.33864   1.34310   1.34616   1.35176
 Alpha virt. eigenvalues --    1.35374   1.35772   1.36192   1.36484   1.36631
 Alpha virt. eigenvalues --    1.36956   1.37913   1.38138   1.38469   1.38627
 Alpha virt. eigenvalues --    1.38902   1.39230   1.39596   1.40281   1.40417
 Alpha virt. eigenvalues --    1.40856   1.41361   1.41878   1.42235   1.42467
 Alpha virt. eigenvalues --    1.42704   1.42820   1.43483   1.44229   1.44730
 Alpha virt. eigenvalues --    1.45040   1.45225   1.45595   1.46299   1.46913
 Alpha virt. eigenvalues --    1.47299   1.47631   1.47736   1.48045   1.48422
 Alpha virt. eigenvalues --    1.48755   1.49174   1.49520   1.49574   1.50154
 Alpha virt. eigenvalues --    1.50664   1.50848   1.51250   1.51306   1.51731
 Alpha virt. eigenvalues --    1.52120   1.52292   1.52562   1.52821   1.53045
 Alpha virt. eigenvalues --    1.53234   1.53441   1.53565   1.53792   1.54014
 Alpha virt. eigenvalues --    1.54301   1.54449   1.54872   1.55098   1.55278
 Alpha virt. eigenvalues --    1.55465   1.55612   1.55877   1.56195   1.56276
 Alpha virt. eigenvalues --    1.56615   1.56750   1.57361   1.57540   1.57657
 Alpha virt. eigenvalues --    1.57876   1.58312   1.58591   1.58894   1.59094
 Alpha virt. eigenvalues --    1.59231   1.59676   1.59835   1.60199   1.60275
 Alpha virt. eigenvalues --    1.60377   1.60817   1.61210   1.61249   1.61419
 Alpha virt. eigenvalues --    1.61702   1.61916   1.62008   1.62175   1.62747
 Alpha virt. eigenvalues --    1.62869   1.63175   1.63465   1.63672   1.63921
 Alpha virt. eigenvalues --    1.64167   1.64551   1.64805   1.65124   1.65269
 Alpha virt. eigenvalues --    1.65743   1.65893   1.65984   1.66439   1.66934
 Alpha virt. eigenvalues --    1.67180   1.67305   1.67491   1.67540   1.67617
 Alpha virt. eigenvalues --    1.67994   1.68489   1.68702   1.68900   1.69302
 Alpha virt. eigenvalues --    1.69601   1.69773   1.70152   1.70661   1.70704
 Alpha virt. eigenvalues --    1.70810   1.71166   1.71634   1.71682   1.71856
 Alpha virt. eigenvalues --    1.72290   1.72677   1.72748   1.73387   1.73589
 Alpha virt. eigenvalues --    1.73833   1.74108   1.74530   1.74838   1.75347
 Alpha virt. eigenvalues --    1.75515   1.75738   1.76066   1.76446   1.77077
 Alpha virt. eigenvalues --    1.77176   1.77464   1.77732   1.78109   1.78303
 Alpha virt. eigenvalues --    1.78711   1.79079   1.79592   1.80150   1.80379
 Alpha virt. eigenvalues --    1.80854   1.81306   1.81631   1.82095   1.82336
 Alpha virt. eigenvalues --    1.82859   1.83070   1.83538   1.83576   1.83822
 Alpha virt. eigenvalues --    1.84366   1.84598   1.84707   1.85067   1.85171
 Alpha virt. eigenvalues --    1.85417   1.85608   1.86115   1.86724   1.87124
 Alpha virt. eigenvalues --    1.87217   1.87536   1.87759   1.87898   1.88613
 Alpha virt. eigenvalues --    1.88706   1.89080   1.89371   1.89628   1.90541
 Alpha virt. eigenvalues --    1.91055   1.91184   1.91548   1.91652   1.91999
 Alpha virt. eigenvalues --    1.92561   1.93117   1.93354   1.93576   1.93932
 Alpha virt. eigenvalues --    1.94228   1.94457   1.94915   1.94968   1.95556
 Alpha virt. eigenvalues --    1.95876   1.96197   1.96427   1.96939   1.97294
 Alpha virt. eigenvalues --    1.97556   1.97930   1.98171   1.98426   1.98490
 Alpha virt. eigenvalues --    1.98903   1.99473   1.99819   2.00283   2.00498
 Alpha virt. eigenvalues --    2.00568   2.00933   2.01082   2.01252   2.01428
 Alpha virt. eigenvalues --    2.01774   2.02096   2.02841   2.02908   2.03398
 Alpha virt. eigenvalues --    2.03592   2.03670   2.04088   2.04997   2.05216
 Alpha virt. eigenvalues --    2.05340   2.05661   2.06210   2.06484   2.06928
 Alpha virt. eigenvalues --    2.07108   2.07675   2.07968   2.08252   2.08517
 Alpha virt. eigenvalues --    2.08897   2.09346   2.09920   2.10385   2.10674
 Alpha virt. eigenvalues --    2.10916   2.11583   2.11870   2.11963   2.12653
 Alpha virt. eigenvalues --    2.12818   2.13097   2.13484   2.13818   2.14182
 Alpha virt. eigenvalues --    2.14615   2.15028   2.15067   2.15429   2.15652
 Alpha virt. eigenvalues --    2.15979   2.16461   2.16883   2.17102   2.17384
 Alpha virt. eigenvalues --    2.17604   2.17859   2.18481   2.18632   2.19267
 Alpha virt. eigenvalues --    2.19602   2.20148   2.20570   2.21045   2.21165
 Alpha virt. eigenvalues --    2.21557   2.21799   2.22007   2.22267   2.22436
 Alpha virt. eigenvalues --    2.22663   2.23371   2.23690   2.24065   2.24371
 Alpha virt. eigenvalues --    2.24632   2.24989   2.25321   2.25485   2.26045
 Alpha virt. eigenvalues --    2.26479   2.26731   2.26941   2.27368   2.28260
 Alpha virt. eigenvalues --    2.28377   2.28921   2.29436   2.29644   2.30128
 Alpha virt. eigenvalues --    2.30380   2.30849   2.31142   2.31612   2.31694
 Alpha virt. eigenvalues --    2.32175   2.32681   2.32856   2.33178   2.33612
 Alpha virt. eigenvalues --    2.33995   2.34128   2.34688   2.35019   2.35380
 Alpha virt. eigenvalues --    2.35674   2.35800   2.36024   2.36647   2.37110
 Alpha virt. eigenvalues --    2.37346   2.37784   2.37925   2.38088   2.38847
 Alpha virt. eigenvalues --    2.39158   2.39436   2.39572   2.40049   2.40142
 Alpha virt. eigenvalues --    2.40198   2.40938   2.41124   2.41471   2.41837
 Alpha virt. eigenvalues --    2.42020   2.42138   2.42544   2.42773   2.43280
 Alpha virt. eigenvalues --    2.43579   2.43824   2.44656   2.45305   2.45458
 Alpha virt. eigenvalues --    2.45672   2.46027   2.46523   2.46830   2.47111
 Alpha virt. eigenvalues --    2.47441   2.47907   2.48073   2.48895   2.49010
 Alpha virt. eigenvalues --    2.49498   2.49618   2.50208   2.50714   2.50810
 Alpha virt. eigenvalues --    2.51243   2.51751   2.52054   2.52329   2.52475
 Alpha virt. eigenvalues --    2.53024   2.53519   2.53808   2.54006   2.54976
 Alpha virt. eigenvalues --    2.55118   2.55316   2.55537   2.56032   2.56225
 Alpha virt. eigenvalues --    2.56363   2.56660   2.57208   2.57355   2.57577
 Alpha virt. eigenvalues --    2.58144   2.58261   2.58487   2.59047   2.59239
 Alpha virt. eigenvalues --    2.59570   2.59901   2.60078   2.60209   2.60564
 Alpha virt. eigenvalues --    2.60700   2.60898   2.61173   2.61579   2.61851
 Alpha virt. eigenvalues --    2.62296   2.62573   2.62736   2.63050   2.63459
 Alpha virt. eigenvalues --    2.63886   2.64083   2.64474   2.64563   2.64762
 Alpha virt. eigenvalues --    2.65172   2.65672   2.66072   2.66484   2.66821
 Alpha virt. eigenvalues --    2.66942   2.67309   2.67410   2.67514   2.67815
 Alpha virt. eigenvalues --    2.68475   2.68717   2.69076   2.69494   2.69552
 Alpha virt. eigenvalues --    2.69919   2.70497   2.70825   2.71348   2.71565
 Alpha virt. eigenvalues --    2.71863   2.72083   2.72545   2.72746   2.72877
 Alpha virt. eigenvalues --    2.73209   2.73469   2.73788   2.74368   2.74605
 Alpha virt. eigenvalues --    2.74970   2.75259   2.75378   2.75456   2.76226
 Alpha virt. eigenvalues --    2.76395   2.76784   2.76948   2.77436   2.77655
 Alpha virt. eigenvalues --    2.77907   2.78143   2.78334   2.78687   2.78930
 Alpha virt. eigenvalues --    2.79363   2.79472   2.79803   2.80077   2.80715
 Alpha virt. eigenvalues --    2.80998   2.81253   2.81482   2.81854   2.81902
 Alpha virt. eigenvalues --    2.82571   2.82747   2.83414   2.84106   2.84631
 Alpha virt. eigenvalues --    2.84657   2.84969   2.85550   2.85714   2.85926
 Alpha virt. eigenvalues --    2.86516   2.86940   2.87226   2.87573   2.87648
 Alpha virt. eigenvalues --    2.87953   2.88645   2.88988   2.89074   2.89687
 Alpha virt. eigenvalues --    2.89852   2.90227   2.90734   2.90871   2.91129
 Alpha virt. eigenvalues --    2.91299   2.91851   2.92030   2.92367   2.92668
 Alpha virt. eigenvalues --    2.92880   2.92981   2.93781   2.93915   2.94588
 Alpha virt. eigenvalues --    2.94622   2.94946   2.95502   2.95784   2.96448
 Alpha virt. eigenvalues --    2.96558   2.97132   2.97227   2.97455   2.97841
 Alpha virt. eigenvalues --    2.97893   2.98073   2.98595   2.98718   2.99206
 Alpha virt. eigenvalues --    2.99365   2.99468   2.99959   3.00348   3.00600
 Alpha virt. eigenvalues --    3.00823   3.00900   3.00962   3.01309   3.01552
 Alpha virt. eigenvalues --    3.01961   3.02349   3.02572   3.03028   3.03384
 Alpha virt. eigenvalues --    3.03542   3.03721   3.04095   3.04309   3.04514
 Alpha virt. eigenvalues --    3.04787   3.05078   3.05358   3.05587   3.06080
 Alpha virt. eigenvalues --    3.06171   3.06912   3.07073   3.07255   3.07396
 Alpha virt. eigenvalues --    3.07759   3.07968   3.08258   3.08728   3.08973
 Alpha virt. eigenvalues --    3.09262   3.09750   3.10066   3.10176   3.10330
 Alpha virt. eigenvalues --    3.10747   3.10912   3.11235   3.11697   3.11915
 Alpha virt. eigenvalues --    3.12287   3.12385   3.12719   3.13030   3.13378
 Alpha virt. eigenvalues --    3.13500   3.13602   3.13745   3.13998   3.14341
 Alpha virt. eigenvalues --    3.14736   3.14881   3.15340   3.15679   3.15838
 Alpha virt. eigenvalues --    3.16160   3.16570   3.16741   3.16832   3.17132
 Alpha virt. eigenvalues --    3.17395   3.17662   3.17969   3.18092   3.18447
 Alpha virt. eigenvalues --    3.18510   3.18721   3.19338   3.19534   3.20003
 Alpha virt. eigenvalues --    3.20353   3.20449   3.20724   3.20825   3.21221
 Alpha virt. eigenvalues --    3.21302   3.21449   3.21765   3.22120   3.22359
 Alpha virt. eigenvalues --    3.22660   3.22784   3.23086   3.23337   3.23567
 Alpha virt. eigenvalues --    3.23937   3.24183   3.24274   3.24636   3.25039
 Alpha virt. eigenvalues --    3.25223   3.25438   3.25741   3.25791   3.25997
 Alpha virt. eigenvalues --    3.26072   3.26644   3.27015   3.27158   3.27403
 Alpha virt. eigenvalues --    3.27479   3.27918   3.27990   3.28146   3.28768
 Alpha virt. eigenvalues --    3.28935   3.29034   3.29220   3.29654   3.29931
 Alpha virt. eigenvalues --    3.30071   3.30457   3.30750   3.30962   3.31174
 Alpha virt. eigenvalues --    3.31596   3.31833   3.32044   3.32267   3.32852
 Alpha virt. eigenvalues --    3.32934   3.33028   3.33484   3.33595   3.34041
 Alpha virt. eigenvalues --    3.34230   3.34359   3.34621   3.34904   3.35093
 Alpha virt. eigenvalues --    3.35528   3.35639   3.35978   3.36122   3.36246
 Alpha virt. eigenvalues --    3.36769   3.36935   3.37050   3.37173   3.37574
 Alpha virt. eigenvalues --    3.37744   3.38032   3.38275   3.38447   3.38572
 Alpha virt. eigenvalues --    3.38852   3.39095   3.39337   3.39527   3.39727
 Alpha virt. eigenvalues --    3.39821   3.40359   3.40525   3.41028   3.41492
 Alpha virt. eigenvalues --    3.41586   3.41775   3.42110   3.42665   3.43033
 Alpha virt. eigenvalues --    3.43296   3.43485   3.43609   3.44136   3.44285
 Alpha virt. eigenvalues --    3.44545   3.44945   3.45172   3.45412   3.45639
 Alpha virt. eigenvalues --    3.45818   3.46041   3.46175   3.46564   3.46973
 Alpha virt. eigenvalues --    3.47560   3.47715   3.47852   3.47964   3.48401
 Alpha virt. eigenvalues --    3.48527   3.48703   3.48997   3.49073   3.49092
 Alpha virt. eigenvalues --    3.49600   3.49896   3.50626   3.50863   3.51044
 Alpha virt. eigenvalues --    3.51266   3.51556   3.51924   3.52115   3.52236
 Alpha virt. eigenvalues --    3.53053   3.53357   3.53619   3.54149   3.54628
 Alpha virt. eigenvalues --    3.54833   3.54886   3.55085   3.55437   3.55939
 Alpha virt. eigenvalues --    3.56255   3.56534   3.56609   3.57097   3.57374
 Alpha virt. eigenvalues --    3.57999   3.58482   3.58560   3.59076   3.59336
 Alpha virt. eigenvalues --    3.59428   3.59848   3.60319   3.61236   3.61456
 Alpha virt. eigenvalues --    3.62006   3.62117   3.62528   3.62629   3.62970
 Alpha virt. eigenvalues --    3.63613   3.64011   3.64431   3.64741   3.65007
 Alpha virt. eigenvalues --    3.65199   3.65651   3.65868   3.65980   3.66664
 Alpha virt. eigenvalues --    3.67087   3.67459   3.67666   3.68054   3.68138
 Alpha virt. eigenvalues --    3.68576   3.69201   3.69422   3.69972   3.70197
 Alpha virt. eigenvalues --    3.70781   3.71182   3.71420   3.71819   3.72051
 Alpha virt. eigenvalues --    3.72444   3.72585   3.72825   3.73257   3.73504
 Alpha virt. eigenvalues --    3.73944   3.74549   3.74556   3.74813   3.74967
 Alpha virt. eigenvalues --    3.75357   3.76255   3.76627   3.76670   3.76806
 Alpha virt. eigenvalues --    3.77724   3.78270   3.78465   3.79031   3.79226
 Alpha virt. eigenvalues --    3.79599   3.80365   3.81156   3.81510   3.81853
 Alpha virt. eigenvalues --    3.82232   3.82583   3.83062   3.83424   3.84004
 Alpha virt. eigenvalues --    3.84730   3.84913   3.85232   3.86078   3.86486
 Alpha virt. eigenvalues --    3.86660   3.87018   3.87577   3.87766   3.88476
 Alpha virt. eigenvalues --    3.88912   3.89133   3.89173   3.89923   3.90530
 Alpha virt. eigenvalues --    3.91106   3.91582   3.91814   3.92505   3.93347
 Alpha virt. eigenvalues --    3.93782   3.95031   3.95066   3.95823   3.95987
 Alpha virt. eigenvalues --    3.96279   3.96948   3.97115   3.97583   3.98054
 Alpha virt. eigenvalues --    3.98888   3.98924   3.99226   4.00152   4.00258
 Alpha virt. eigenvalues --    4.00618   4.01153   4.01464   4.01945   4.02171
 Alpha virt. eigenvalues --    4.02495   4.03142   4.03734   4.04080   4.04739
 Alpha virt. eigenvalues --    4.05087   4.05538   4.06117   4.06900   4.07318
 Alpha virt. eigenvalues --    4.08003   4.08393   4.09077   4.09947   4.10422
 Alpha virt. eigenvalues --    4.10705   4.11956   4.12526   4.12968   4.13364
 Alpha virt. eigenvalues --    4.13656   4.13877   4.14274   4.14731   4.15503
 Alpha virt. eigenvalues --    4.16026   4.16242   4.16902   4.17827   4.18337
 Alpha virt. eigenvalues --    4.18491   4.19222   4.19420   4.19793   4.19981
 Alpha virt. eigenvalues --    4.20194   4.21379   4.21784   4.22487   4.23015
 Alpha virt. eigenvalues --    4.23393   4.23728   4.24031   4.24639   4.25394
 Alpha virt. eigenvalues --    4.25784   4.26252   4.26514   4.27459   4.27524
 Alpha virt. eigenvalues --    4.27725   4.28388   4.28785   4.29214   4.30327
 Alpha virt. eigenvalues --    4.30395   4.31140   4.31400   4.31965   4.32566
 Alpha virt. eigenvalues --    4.32814   4.34084   4.34370   4.34598   4.35090
 Alpha virt. eigenvalues --    4.35550   4.36248   4.36486   4.36832   4.37637
 Alpha virt. eigenvalues --    4.37893   4.38213   4.38519   4.39029   4.39636
 Alpha virt. eigenvalues --    4.40207   4.40491   4.40859   4.40958   4.41401
 Alpha virt. eigenvalues --    4.42153   4.42233   4.42990   4.43354   4.43511
 Alpha virt. eigenvalues --    4.43795   4.44515   4.45084   4.45469   4.46033
 Alpha virt. eigenvalues --    4.46303   4.46736   4.47441   4.48093   4.48561
 Alpha virt. eigenvalues --    4.49091   4.49798   4.50833   4.51493   4.51538
 Alpha virt. eigenvalues --    4.52637   4.53357   4.54236   4.55572   4.55755
 Alpha virt. eigenvalues --    4.56758   4.56892   4.58082   4.58447   4.59173
 Alpha virt. eigenvalues --    4.59591   4.60452   4.60792   4.60994   4.61941
 Alpha virt. eigenvalues --    4.62278   4.62837   4.63585   4.64181   4.65389
 Alpha virt. eigenvalues --    4.66026   4.66609   4.66939   4.67755   4.68036
 Alpha virt. eigenvalues --    4.68201   4.68903   4.69725   4.70199   4.70605
 Alpha virt. eigenvalues --    4.71022   4.71652   4.71850   4.72032   4.73167
 Alpha virt. eigenvalues --    4.73860   4.74375   4.75196   4.75792   4.76114
 Alpha virt. eigenvalues --    4.76860   4.78030   4.78433   4.78706   4.79972
 Alpha virt. eigenvalues --    4.80551   4.80985   4.81523   4.82052   4.82610
 Alpha virt. eigenvalues --    4.83360   4.84517   4.85878   4.86320   4.86888
 Alpha virt. eigenvalues --    4.87774   4.88315   4.89229   4.89843   4.90193
 Alpha virt. eigenvalues --    4.90872   4.91191   4.91496   4.91866   4.92863
 Alpha virt. eigenvalues --    4.93710   4.94576   4.94936   4.96194   4.96525
 Alpha virt. eigenvalues --    4.96691   4.97378   4.98161   4.99011   5.00302
 Alpha virt. eigenvalues --    5.02165   5.02965   5.03751   5.03803   5.04246
 Alpha virt. eigenvalues --    5.05039   5.06542   5.08519   5.10603   5.10834
 Alpha virt. eigenvalues --    5.11497   5.12186   5.12368   5.15324   5.16598
 Alpha virt. eigenvalues --    5.18002   5.18722   5.19033   5.19262   5.19648
 Alpha virt. eigenvalues --    5.20224   5.20280   5.21679   5.22750   5.22943
 Alpha virt. eigenvalues --    5.23325   5.23873   5.24695   5.24949   5.25745
 Alpha virt. eigenvalues --    5.27382   5.27816   5.28852   5.29789   5.30607
 Alpha virt. eigenvalues --    5.31070   5.33280   5.33299   5.35058   5.35550
 Alpha virt. eigenvalues --    5.35820   5.37021   5.38009   5.39050   5.39846
 Alpha virt. eigenvalues --    5.40229   5.42783   5.43080   5.43370   5.43804
 Alpha virt. eigenvalues --    5.44808   5.45046   5.45518   5.46133   5.46750
 Alpha virt. eigenvalues --    5.49620   5.51535   5.53730   5.54959   5.56404
 Alpha virt. eigenvalues --    5.57465   5.58808   5.59237   5.60067   5.60588
 Alpha virt. eigenvalues --    5.62283   5.62685   5.63420   5.63967   5.64482
 Alpha virt. eigenvalues --    5.64628   5.65128   5.68025   5.72925   5.74974
 Alpha virt. eigenvalues --    5.77459   5.79320   5.80051   5.80957   5.82930
 Alpha virt. eigenvalues --    5.84359   5.85440   5.91878   5.92722   5.94575
 Alpha virt. eigenvalues --    5.94985   5.96019   5.96082   5.96672   5.99024
 Alpha virt. eigenvalues --    6.00023   6.01237   6.03305   6.07179   6.08860
 Alpha virt. eigenvalues --    6.08949   6.10456   6.11151   6.14749   6.14842
 Alpha virt. eigenvalues --    6.18400   6.18499   6.20438   6.22816   6.25956
 Alpha virt. eigenvalues --    6.27686   6.29373   6.30731   6.34611   6.37758
 Alpha virt. eigenvalues --    6.39499   6.43896   6.44524   6.47422   6.48364
 Alpha virt. eigenvalues --    6.49816   6.55346   6.67053   6.74593   6.76399
 Alpha virt. eigenvalues --    6.77886   6.86865   6.87723   6.92203   6.95151
 Alpha virt. eigenvalues --    6.99077   7.09466   7.12907   7.15004   7.19549
 Alpha virt. eigenvalues --    7.21412   7.25554   7.29339   9.28243   9.51431
 Alpha virt. eigenvalues --    9.60083  20.19139  22.31175  22.37095  22.44283
 Alpha virt. eigenvalues --   22.50006  22.50919  22.52604  22.53700  22.53924
 Alpha virt. eigenvalues --   22.54692  22.61554  22.64977  22.68434  22.70384
 Alpha virt. eigenvalues --   22.73099  22.74091  22.77276  22.80628  22.86762
 Alpha virt. eigenvalues --   22.89714  22.90509  22.92151  22.96768  22.99922
 Alpha virt. eigenvalues --   23.04902  23.11420  23.14540  23.17289  23.19343
 Alpha virt. eigenvalues --   23.21763  23.29238  23.32639  23.33580  23.40140
 Alpha virt. eigenvalues --   23.44642  23.48055  23.55218  23.64353  23.66434
 Alpha virt. eigenvalues --   23.69952  23.72430  23.82242  32.48139  32.78556
 Alpha virt. eigenvalues --   32.94342  33.00841  33.06797  33.14011  43.93734
 Alpha virt. eigenvalues --   43.95880  44.00751  44.13905
  Beta  occ. eigenvalues -- -256.32354 -89.00727 -30.06970 -25.90689 -25.90296
  Beta  occ. eigenvalues --  -25.88676 -19.26242 -19.25879 -19.18666 -19.16629
  Beta  occ. eigenvalues --  -14.44803 -14.38081 -14.37807 -14.37646 -14.37400
  Beta  occ. eigenvalues --  -14.37214 -10.35627 -10.34332 -10.27770 -10.26072
  Beta  occ. eigenvalues --  -10.25740 -10.25522 -10.25093 -10.25032 -10.24922
  Beta  occ. eigenvalues --  -10.24883 -10.24784 -10.24780 -10.24354 -10.23490
  Beta  occ. eigenvalues --  -10.23317 -10.23293 -10.23237 -10.23229 -10.23179
  Beta  occ. eigenvalues --  -10.23170 -10.23100 -10.23075 -10.23034 -10.22914
  Beta  occ. eigenvalues --  -10.22674 -10.22550 -10.22385 -10.22342 -10.22314
  Beta  occ. eigenvalues --  -10.22239 -10.22140 -10.22059 -10.21859 -10.21773
  Beta  occ. eigenvalues --  -10.21707 -10.21596 -10.21588 -10.21543 -10.21513
  Beta  occ. eigenvalues --  -10.21269 -10.20509  -7.98666  -5.92344  -5.92006
  Beta  occ. eigenvalues --   -5.91430  -3.39178  -2.16756  -2.14918  -2.11029
  Beta  occ. eigenvalues --   -1.17790  -1.15906  -1.06465  -1.03197  -1.01435
  Beta  occ. eigenvalues --   -0.97191  -0.96251  -0.95762  -0.94881  -0.90498
  Beta  occ. eigenvalues --   -0.84021  -0.83601  -0.83051  -0.82719  -0.82281
  Beta  occ. eigenvalues --   -0.81584  -0.81250  -0.80453  -0.80350  -0.79002
  Beta  occ. eigenvalues --   -0.77972  -0.76503  -0.76197  -0.75320  -0.74777
  Beta  occ. eigenvalues --   -0.73561  -0.72771  -0.72360  -0.71668  -0.71074
  Beta  occ. eigenvalues --   -0.70585  -0.69351  -0.68834  -0.67437  -0.66504
  Beta  occ. eigenvalues --   -0.66080  -0.64997  -0.64676  -0.64566  -0.62324
  Beta  occ. eigenvalues --   -0.62239  -0.60740  -0.59738  -0.58692  -0.57323
  Beta  occ. eigenvalues --   -0.56606  -0.56068  -0.54614  -0.54154  -0.53524
  Beta  occ. eigenvalues --   -0.53245  -0.52668  -0.51966  -0.51902  -0.50989
  Beta  occ. eigenvalues --   -0.50498  -0.49797  -0.49608  -0.48623  -0.48544
  Beta  occ. eigenvalues --   -0.48120  -0.48092  -0.47865  -0.47778  -0.47134
  Beta  occ. eigenvalues --   -0.46505  -0.45932  -0.45750  -0.45207  -0.44865
  Beta  occ. eigenvalues --   -0.44759  -0.44562  -0.44293  -0.44291  -0.44026
  Beta  occ. eigenvalues --   -0.43960  -0.43716  -0.43534  -0.43379  -0.43355
  Beta  occ. eigenvalues --   -0.43301  -0.43137  -0.42975  -0.42893  -0.42537
  Beta  occ. eigenvalues --   -0.42303  -0.41968  -0.41698  -0.41403  -0.41182
  Beta  occ. eigenvalues --   -0.40821  -0.40340  -0.39723  -0.39619  -0.39419
  Beta  occ. eigenvalues --   -0.39237  -0.39096  -0.39031  -0.38675  -0.38282
  Beta  occ. eigenvalues --   -0.38127  -0.38004  -0.37675  -0.37422  -0.36837
  Beta  occ. eigenvalues --   -0.36723  -0.36457  -0.35989  -0.35734  -0.35644
  Beta  occ. eigenvalues --   -0.35415  -0.34637  -0.34202  -0.33609  -0.32868
  Beta  occ. eigenvalues --   -0.32400  -0.32300  -0.32096  -0.31898  -0.31531
  Beta  occ. eigenvalues --   -0.30995  -0.30247  -0.28447  -0.28410  -0.27906
  Beta  occ. eigenvalues --   -0.26736  -0.26599  -0.25658  -0.25228  -0.24617
  Beta  occ. eigenvalues --   -0.23702  -0.23545  -0.21523  -0.20197  -0.18994
  Beta  occ. eigenvalues --   -0.18859  -0.15636
  Beta virt. eigenvalues --   -0.09135  -0.07567  -0.06937  -0.04393  -0.02844
  Beta virt. eigenvalues --   -0.02213  -0.00699   0.00544   0.00940   0.01731
  Beta virt. eigenvalues --    0.02382   0.02885   0.03031   0.04096   0.04413
  Beta virt. eigenvalues --    0.04648   0.04739   0.04977   0.05661   0.05768
  Beta virt. eigenvalues --    0.05911   0.06093   0.06327   0.06577   0.06752
  Beta virt. eigenvalues --    0.06894   0.07264   0.07441   0.07878   0.08185
  Beta virt. eigenvalues --    0.08304   0.08552   0.08765   0.09100   0.09524
  Beta virt. eigenvalues --    0.09683   0.09890   0.10396   0.10428   0.10660
  Beta virt. eigenvalues --    0.10960   0.11165   0.11392   0.11557   0.12019
  Beta virt. eigenvalues --    0.12113   0.12478   0.12768   0.12897   0.13154
  Beta virt. eigenvalues --    0.13234   0.13478   0.13567   0.13805   0.13898
  Beta virt. eigenvalues --    0.13938   0.14076   0.14284   0.14456   0.14731
  Beta virt. eigenvalues --    0.14735   0.15053   0.15306   0.15465   0.15660
  Beta virt. eigenvalues --    0.15918   0.16019   0.16215   0.16382   0.16521
  Beta virt. eigenvalues --    0.16663   0.16781   0.17185   0.17667   0.17957
  Beta virt. eigenvalues --    0.18059   0.18228   0.18506   0.18558   0.18914
  Beta virt. eigenvalues --    0.19206   0.19333   0.19575   0.19721   0.19918
  Beta virt. eigenvalues --    0.20378   0.20528   0.20592   0.20855   0.20986
  Beta virt. eigenvalues --    0.21019   0.21366   0.21745   0.21791   0.21951
  Beta virt. eigenvalues --    0.22215   0.22359   0.22482   0.22951   0.23064
  Beta virt. eigenvalues --    0.23325   0.23534   0.23798   0.23971   0.24033
  Beta virt. eigenvalues --    0.24220   0.24432   0.24503   0.24884   0.24994
  Beta virt. eigenvalues --    0.25212   0.25461   0.25527   0.25937   0.26118
  Beta virt. eigenvalues --    0.26324   0.26443   0.26894   0.26975   0.27148
  Beta virt. eigenvalues --    0.27264   0.27524   0.27669   0.28175   0.28338
  Beta virt. eigenvalues --    0.28571   0.28663   0.28988   0.29149   0.29248
  Beta virt. eigenvalues --    0.29488   0.29721   0.30072   0.30111   0.30365
  Beta virt. eigenvalues --    0.30619   0.30833   0.31076   0.31345   0.31363
  Beta virt. eigenvalues --    0.31661   0.31895   0.31950   0.32346   0.32457
  Beta virt. eigenvalues --    0.32637   0.32974   0.33504   0.33629   0.33698
  Beta virt. eigenvalues --    0.33939   0.34091   0.34260   0.34707   0.35187
  Beta virt. eigenvalues --    0.35377   0.35566   0.35716   0.35898   0.36171
  Beta virt. eigenvalues --    0.36577   0.36799   0.36883   0.37042   0.37164
  Beta virt. eigenvalues --    0.37507   0.37548   0.37719   0.38028   0.38231
  Beta virt. eigenvalues --    0.38501   0.38860   0.38985   0.39325   0.39473
  Beta virt. eigenvalues --    0.39555   0.39684   0.40066   0.40148   0.40312
  Beta virt. eigenvalues --    0.40670   0.40693   0.40775   0.40919   0.41255
  Beta virt. eigenvalues --    0.41418   0.41490   0.41681   0.41855   0.41902
  Beta virt. eigenvalues --    0.42198   0.42389   0.42444   0.42791   0.42914
  Beta virt. eigenvalues --    0.43063   0.43246   0.43361   0.43607   0.43942
  Beta virt. eigenvalues --    0.43995   0.44245   0.44440   0.44636   0.44694
  Beta virt. eigenvalues --    0.44818   0.44913   0.45145   0.45354   0.45476
  Beta virt. eigenvalues --    0.45653   0.45793   0.45955   0.46035   0.46290
  Beta virt. eigenvalues --    0.46480   0.46731   0.46780   0.46978   0.47252
  Beta virt. eigenvalues --    0.47403   0.47592   0.47838   0.47893   0.48222
  Beta virt. eigenvalues --    0.48358   0.48374   0.48616   0.48718   0.48818
  Beta virt. eigenvalues --    0.48899   0.49187   0.49364   0.49556   0.49628
  Beta virt. eigenvalues --    0.49791   0.49805   0.50003   0.50135   0.50501
  Beta virt. eigenvalues --    0.50562   0.50832   0.51086   0.51261   0.51400
  Beta virt. eigenvalues --    0.51554   0.51716   0.52092   0.52302   0.52344
  Beta virt. eigenvalues --    0.52565   0.52700   0.53073   0.53265   0.53328
  Beta virt. eigenvalues --    0.53588   0.53747   0.54022   0.54156   0.54448
  Beta virt. eigenvalues --    0.54654   0.54664   0.54868   0.55023   0.55439
  Beta virt. eigenvalues --    0.55595   0.55758   0.55961   0.56100   0.56327
  Beta virt. eigenvalues --    0.56495   0.56511   0.56851   0.57274   0.57326
  Beta virt. eigenvalues --    0.57467   0.57750   0.57790   0.57893   0.58166
  Beta virt. eigenvalues --    0.58226   0.58657   0.58716   0.58973   0.59373
  Beta virt. eigenvalues --    0.59718   0.60009   0.60161   0.60308   0.60442
  Beta virt. eigenvalues --    0.60792   0.60954   0.61118   0.61418   0.61760
  Beta virt. eigenvalues --    0.62092   0.62249   0.62473   0.63089   0.63342
  Beta virt. eigenvalues --    0.63723   0.63946   0.64060   0.64292   0.64482
  Beta virt. eigenvalues --    0.64581   0.64921   0.65261   0.65687   0.65859
  Beta virt. eigenvalues --    0.66366   0.66570   0.66812   0.67168   0.67302
  Beta virt. eigenvalues --    0.67508   0.67988   0.68252   0.68714   0.68938
  Beta virt. eigenvalues --    0.69215   0.69323   0.69495   0.69804   0.69981
  Beta virt. eigenvalues --    0.70294   0.70407   0.70854   0.71031   0.71270
  Beta virt. eigenvalues --    0.71477   0.71633   0.71873   0.72005   0.72591
  Beta virt. eigenvalues --    0.72786   0.73055   0.73298   0.73591   0.73735
  Beta virt. eigenvalues --    0.73969   0.74167   0.74493   0.74727   0.74999
  Beta virt. eigenvalues --    0.75322   0.75948   0.76203   0.76340   0.76726
  Beta virt. eigenvalues --    0.76909   0.77001   0.77246   0.77508   0.77904
  Beta virt. eigenvalues --    0.78103   0.78503   0.78812   0.79311   0.79709
  Beta virt. eigenvalues --    0.79955   0.80068   0.80605   0.80664   0.81097
  Beta virt. eigenvalues --    0.81369   0.81565   0.82027   0.82116   0.82430
  Beta virt. eigenvalues --    0.82505   0.82857   0.83630   0.83731   0.84302
  Beta virt. eigenvalues --    0.84429   0.84530   0.84855   0.84991   0.85559
  Beta virt. eigenvalues --    0.85913   0.86062   0.86417   0.86858   0.86995
[...]
  1630. RY*(   5) H  61                  0.00000     2.89715   
  1631. RY*(   1) H  62                  0.00084     0.74985   
  1632. RY*(   2) H  62                  0.00014     2.25106   
  1633. RY*(   3) H  62                  0.00011     2.19964   
  1634. RY*(   4) H  62                  0.00006     3.01287   
  1635. RY*(   5) H  62                  0.00001     3.27101   
  1636. RY*(   1) H  63                  0.00085     0.71485   
  1637. RY*(   2) H  63                  0.00013     2.26064   
  1638. RY*(   3) H  63                  0.00011     2.15540   
  1639. RY*(   4) H  63                  0.00006     3.03336   
  1640. RY*(   5) H  63                  0.00000     3.21640   
  1641. RY*(   1) H  64                  0.00022     1.41217   
  1642. RY*(   2) H  64                  0.00010     1.86877   
  1643. RY*(   3) H  64                  0.00003     2.13659   
  1644. RY*(   4) H  64                  0.00000     2.40862   
  1645. RY*(   5) H  64                  0.00001     2.29997   
  1646. RY*(   1) H  65                  0.00030     1.07272   
  1647. RY*(   2) H  65                  0.00008     1.65565   
  1648. RY*(   3) H  65                  0.00004     2.14984   
  1649. RY*(   4) H  65                  0.00001     2.27457   
  1650. RY*(   5) H  65                  0.00001     2.69360   
  1651. RY*(   1) H  66                  0.00029     1.06354   
  1652. RY*(   2) H  66                  0.00007     1.75578   
  1653. RY*(   3) H  66                  0.00003     2.20998   
  1654. RY*(   4) H  66                  0.00001     1.99471   
  1655. RY*(   5) H  66                  0.00000     2.87581   
  1656. RY*(   1) H  67                  0.00111     0.68322   
  1657. RY*(   2) H  67                  0.00012     2.18823   
  1658. RY*(   3) H  67                  0.00012     2.25585   
  1659. RY*(   4) H  67                  0.00007     3.01012   
  1660. RY*(   5) H  67                  0.00001     3.20435   
  1661. RY*(   1) H  68                  0.00067     0.82860   
  1662. RY*(   2) H  68                  0.00009     1.79305   
  1663. RY*(   3) H  68                  0.00006     2.10642   
  1664. RY*(   4) H  68                  0.00003     2.16923   
  1665. RY*(   5) H  68                  0.00001     3.02303   
  1666. RY*(   1) H  69                  0.00024     1.40446   
  1667. RY*(   2) H  69                  0.00010     1.89186   
  1668. RY*(   3) H  69                  0.00003     2.13587   
  1669. RY*(   4) H  69                  0.00001     2.36015   
  1670. RY*(   5) H  69                  0.00001     2.38595   
  1671. RY*(   1) H  70                  0.00047     0.91570   
  1672. RY*(   2) H  70                  0.00008     1.75494   
  1673. RY*(   3) H  70                  0.00004     2.14726   
  1674. RY*(   4) H  70                  0.00002     2.04353   
  1675. RY*(   5) H  70                  0.00000     2.99407   
  1676. RY*(   1) H  71                  0.00105     0.65916   
  1677. RY*(   2) H  71                  0.00014     2.17956   
  1678. RY*(   3) H  71                  0.00013     2.25732   
  1679. RY*(   4) H  71                  0.00007     3.05327   
  1680. RY*(   5) H  71                  0.00001     3.25623   
  1681. RY*(   1) H  72                  0.00040     0.97059   
  1682. RY*(   2) H  72                  0.00009     1.81835   
  1683. RY*(   3) H  72                  0.00003     2.09155   
  1684. RY*(   4) H  72                  0.00003     2.07566   
  1685. RY*(   5) H  72                  0.00000     2.95821   
  1686. RY*(   1) H  73                  0.00041     0.98891   
  1687. RY*(   2) H  73                  0.00006     1.74610   
  1688. RY*(   3) H  73                  0.00006     2.24249   
  1689. RY*(   4) H  73                  0.00003     2.07088   
  1690. RY*(   5) H  73                  0.00000     3.04606   
  1691. RY*(   1) H  74                  0.00051     1.00194   
  1692. RY*(   2) H  74                  0.00009     1.71054   
  1693. RY*(   3) H  74                  0.00003     2.12965   
  1694. RY*(   4) H  74                  0.00002     2.13633   
  1695. RY*(   5) H  74                  0.00001     2.93903   
  1696. RY*(   1) H  75                  0.00058     0.63426   
  1697. RY*(   2) H  75                  0.00008     2.63790   
  1698. RY*(   3) H  75                  0.00005     2.28539   
  1699. RY*(   4) H  75                  0.00005     2.45165   
  1700. RY*(   5) H  75                  0.00000     2.97799   
  1701. RY*(   1) H  76                  0.00038     1.78677   
  1702. RY*(   2) H  76                  0.00009     2.69227   
  1703. RY*(   3) H  76                  0.00006     2.43883   
  1704. RY*(   4) H  76                  0.00003     1.26178   
  1705. RY*(   5) H  76                  0.00000     3.11002   
  1706. RY*(   1) H  77                  0.00029     1.10257   
  1707. RY*(   2) H  77                  0.00007     1.72261   
  1708. RY*(   3) H  77                  0.00006     2.38239   
  1709. RY*(   4) H  77                  0.00003     2.53889   
  1710. RY*(   5) H  77                  0.00000     2.83232   
  1711. RY*(   1) H  78                  0.00045     1.00817   
  1712. RY*(   2) H  78                  0.00007     2.11741   
  1713. RY*(   3) H  78                  0.00004     2.36029   
  1714. RY*(   4) H  78                  0.00004     2.24517   
  1715. RY*(   5) H  78                  0.00001     3.04594   
  1716. RY*(   1) H  79                  0.00040     2.10517   
  1717. RY*(   2) H  79                  0.00037     1.65382   
  1718. RY*(   3) H  79                  0.00014     2.23831   
  1719. RY*(   4) H  79                  0.00010     1.44712   
  1720. RY*(   5) H  79                  0.00000     3.30909   
  1791. RY*(   1) H  94                  0.00064     1.02468   
  1792. RY*(   2) H  94                  0.00009     1.78234   
  1793. RY*(   3) H  94                  0.00004     2.14565   
  1794. RY*(   4) H  94                  0.00004     2.12837   
  1795. RY*(   5) H  94                  0.00002     2.59141   
  1796. RY*(   1) H  95                  0.00034     1.27713   
  1797. RY*(   2) H  95                  0.00010     1.62374   
  1798. RY*(   3) H  95                  0.00002     2.37267   
  1799. RY*(   4) H  95                  0.00003     2.38266   
  1800. RY*(   5) H  95                  0.00000     1.87582   
  1801. RY*(   1) H  96                  0.00064     0.84814   
  1802. RY*(   2) H  96                  0.00013     2.04194   
  1803. RY*(   3) H  96                  0.00004     2.75445   
  1804. RY*(   4) H  96                  0.00004     2.27842   
  1805. RY*(   5) H  96                  0.00000     3.04698   
  1806. RY*(   1) H  97                  0.00021     1.32252   
  1807. RY*(   2) H  97                  0.00011     1.70191   
  1808. RY*(   3) H  97                  0.00003     2.60589   
  1809. RY*(   4) H  97                  0.00000     1.93597   
  1810. RY*(   5) H  97                  0.00001     1.94805   
  1811. RY*(   1) H  98                  0.00025     1.02244   
  1812. RY*(   2) H  98                  0.00011     1.83119   
  1813. RY*(   3) H  98                  0.00001     2.35945   
  1814. RY*(   4) H  98                  0.00001     2.12145   
  1815. RY*(   5) H  98                  0.00001     2.21975   
  1816. RY*(   1) H  99                  0.00045     0.69317   
  1817. RY*(   2) H  99                  0.00010     2.23791   
  1818. RY*(   3) H  99                  0.00004     2.80817   
  1819. RY*(   4) H  99                  0.00003     2.23785   
  1820. RY*(   5) H  99                  0.00001     3.08328   
  1847. BD*(   1) C  11 - C  15          0.01040     0.51598   
  1848. BD*(   2) C  11 - C  15          0.22074     0.03382  1866(v),472(g),1852(r)
                                                    580(g)
  1849. BD*(   1) C  11 - C  42          0.01014     0.52147   
  1850. BD*(   1) C  11 - H  62          0.00557     0.46142   
  1851. BD*(   1) C  12 - C  18          0.01079     0.58239   
  1852. BD*(   2) C  12 - C  18          0.19627     0.04509  1866(v),1886(v),1856(r)
                                                    498(g),1848(r),658(g)
  1853. BD*(   1) C  12 - C  25          0.01059     0.58079   
  1854. BD*(   1) C  12 - H  71          0.00755     0.44849   
  1855. BD*(   1) C  13 - C  28          0.01047     0.56554   
  1856. BD*(   2) C  13 - C  28          0.19875     0.04556  1888(v),1903(v),1886(v)
                                                    1852(r),524(g),1860(r)
                                                    918(g),1897(r),1846(r)
  1857. BD*(   1) C  13 - C  32          0.01073     0.56149   
  1858. BD*(   1) C  13 - H  67          0.00713     0.45302   
  1859. BD*(   1) C  14 - C  35          0.00992     0.55649   
  1860. BD*(   2) C  14 - C  35          0.19561     0.04253  1920(v),1905(v),1903(v)
                                                    1856(r),1100(g),550(g)
  1861. BD*(   1) C  14 - C  39          0.00995     0.56003   
  1862. BD*(   1) C  14 - H  63          0.00680     0.45153   
  1863. BD*(   1) C  15 - C  16          0.01642     0.47542   
  1864. BD*(   1) C  15 - N  49          0.01359     0.48163   
  1865. BD*(   1) C  16 - C  17          0.01006     0.56895   
  1866. BD*(   2) C  16 - C  17          0.13057     0.05499  1852(v),1848(v),1874(v)
                                                    1873(v),1875(v),1871(v)
                                                    1882(r)
  1867. BD*(   1) C  16 - C  20          0.01223     0.36679   
  1868. BD*(   1) C  17 - C  18          0.01649     0.48568   
  1869. BD*(   1) C  17 - C  19          0.00903     0.35505   
  1870. BD*(   1) C  18 - N  49          0.01471     0.47958   
  1871. BD*(   1) C  19 - H  72          0.00387     0.39891   
  1872. BD*(   1) C  19 - H  73          0.00295     0.40987   
  1873. BD*(   1) C  19 - H  74          0.00542     0.40096   
  1874. BD*(   1) C  20 - C  21          0.00672     0.35712   
  1875. BD*(   1) C  20 - H  75          0.00728     0.40492   
  1876. BD*(   1) C  20 - H  76          0.00633     0.41670   
  1877. BD*(   1) C  21 - C  22          0.04089     0.34623   
  1878. BD*(   1) C  21 - H  77          0.00571     0.39092   
  1879. BD*(   1) C  21 - H  78          0.00734     0.39447   
  1880. BD*(   1) C  22 - O  23          0.03347     0.52680   
  1881. BD*(   1) C  22 - O  24          0.02778     0.51316   
  1882. BD*(   2) C  22 - O  24          0.08352     0.02696   
  1883. BD*(   1) O  23 - H  79          0.00796     0.36914   
  1884. BD*(   1) C  25 - C  26          0.01484     0.50195   
  1885. BD*(   1) C  25 - N  50          0.01525     0.43779   
  1886. BD*(   2) C  25 - N  50          0.31969    -0.00216  1852(v),1888(v),1856(v)
                                                    210(r),838(g),1831(r)
                                                    1488(g),498(v),207(r)
  1887. BD*(   1) C  26 - C  27          0.01294     0.56028   
  1888. BD*(   2) C  26 - C  27          0.15769     0.05477  1856(v),1897(v),1886(v)
                                                    1895(v),1893(v),1898(v)
  1889. BD*(   1) C  26 - C  29          0.00887     0.34971   
  1890. BD*(   1) C  27 - C  28          0.01855     0.43482   
  1891. BD*(   1) C  27 - C  30          0.01085     0.49509   
  1892. BD*(   1) C  28 - N  50          0.01219     0.45820   
  1893. BD*(   1) C  29 - H  68          0.00452     0.40965   
  1894. BD*(   1) C  29 - H  69          0.00273     0.41457   
  1895. BD*(   1) C  29 - H  70          0.00445     0.40592   
  1896. BD*(   1) C  30 - C  31          0.00340     0.48990   
  1897. BD*(   2) C  30 - C  31          0.04245     0.02459   
  1898. BD*(   1) C  30 - H  96          0.00679     0.43309   
  1899. BD*(   1) C  31 - H  94          0.00388     0.43670   
  1900. BD*(   1) C  31 - H  95          0.00235     0.43656   
  1901. BD*(   1) C  32 - C  33          0.01607     0.46840   
  1902. BD*(   1) C  32 - N  51          0.01339     0.47211   
  1903. BD*(   2) C  32 - N  51          0.34502    -0.00128  1856(v),1905(v),1860(v)
                                                    1019(g),1513(g),524(v)
                                                    207(r),1516(g),1839(r)
                                                    1831(r)
  1904. BD*(   1) C  33 - C  34          0.01155     0.54875   
  1905. BD*(   2) C  33 - C  34          0.14249     0.06291  1860(v),1903(v),1914(v)
                                                    1911(v),1912(v),1046(g)
  1906. BD*(   1) C  33 - C  36          0.00764     0.35940   
  1907. BD*(   1) C  34 - C  35          0.01562     0.46285   
  1908. BD*(   1) C  34 - C  37          0.00984     0.51267   
  1909. BD*(   1) C  35 - N  51          0.01383     0.43954   
  1910. BD*(   1) C  36 - H  64          0.00246     0.41596   
  1911. BD*(   1) C  36 - H  65          0.00330     0.40965   
  1912. BD*(   1) C  36 - H  66          0.00280     0.41492   
  1913. BD*(   1) C  37 - C  38          0.00349     0.54132   
  1914. BD*(   1) C  37 -Fe  53          0.18441    -0.03988  1905(v),192(v),1916(v)
                                                    1917(v),1907(v)
  1915. BD*(   1) C  37 - H  99          0.00412     0.43800   
  1916. BD*(   1) C  38 - H  97          0.00241     0.44204   
  1917. BD*(   1) C  38 - H  98          0.00287     0.43978   
  1918. BD*(   1) C  39 - C  40          0.01616     0.47920   
  1919. BD*(   1) C  39 - N  52          0.01427     0.46724   
  1920. BD*(   2) C  39 - N  52          0.32142     0.00473  1860(v),1922(v),210(r)
                                                    1202(g),1540(g),1201(g)
                                                    206(r),1831(r),1842(r)
  1921. BD*(   1) C  40 - C  41          0.00964     0.59520   
  1922. BD*(   2) C  40 - C  41          0.13059     0.06822  1920(v),1929(v),1930(v)
                                                    1928(v)
  1923. BD*(   1) C  40 - C  43          0.00881     0.36745   
  1924. BD*(   1) C  41 - C  42          0.01712     0.47101   
  1925. BD*(   1) C  41 - C  44          0.01077     0.38607   
  1926. BD*(   1) C  42 - N  52          0.01335     0.48373   
  1927. BD*(   1) C  43 - H  59          0.00239     0.41747   
  1928. BD*(   1) C  43 - H  60          0.00375     0.41337   
  1929. BD*(   1) C  43 - H  61          0.00436     0.41072   
  1930. BD*(   1) C  44 - C  45          0.00624     0.35462   
  1931. BD*(   1) C  44 - H  57          0.00591     0.42317   
  1932. BD*(   1) C  44 - H  58          0.00592     0.42823   
  1933. BD*(   1) C  45 - C  46          0.04017     0.34905   
  1934. BD*(   1) C  45 - H  55          0.00561     0.40699   
  1935. BD*(   1) C  45 - H  56          0.00627     0.38981   
  1936. BD*(   1) C  46 - O  47          0.03591     0.48841   
  1937. BD*(   1) C  46 - O  48          0.02636     0.49708   
  1938. BD*(   2) C  46 - O  48          0.10643     0.06247  1937(g),1935(v),1934(v)
                                                    1437(g)
  1939. BD*(   1) O  47 - H  54          0.00558     0.38043   
       -------------------------------
              Total Lewis  154.26485  ( 96.7988%)
        Valence non-Lewis    4.78390  (  3.0018%)
        Rydberg non-Lewis    0.31767  (  0.1993%)
       -------------------------------
            Total unit  3  159.36642  (100.0000%)
           Charge unit  3    1.63358
 1\1\GINC-NODE470\SP\UPBE1PBE\def2TZVP\C41H46Fe1N6O4S1(5)\ZHARTOVSKA\21
 -Jan-2023\0\\# PBE1PBE/def2TZVP empiricaldispersion=GD3BJ scf=maxcycle
 =999 geom=check pop=nbo\\1vb6_II_Q\\0,5\C,0,-2.424,-20.167999,-17.7560
 01\C,0,-1.867,-19.166,-16.792\N,0,-1.739,-17.827999,-17.097\C,0,-1.43,
 -19.306,-15.519\C,0,-1.25,-17.184999,-16.052999\N,0,-1.053,-18.058001,
 -15.081\C,0,-0.046,-17.419001,-8.269\C,0,-0.44,-17.849001,-9.667\S,0,0
 .424,-16.907,-10.952\C,0,2.103,-17.461,-10.658\C,0,-3.488,-18.146999,-
 11.841\C,0,0.475,-20.855,-12.647\C,0,2.812,-16.966999,-14.344\C,0,-1.1
 2,-14.231,-13.549\C,0,-2.587,-19.247999,-11.935\C,0,-2.932,-20.6,-11.5
 06\C,0,-1.805,-21.367001,-11.727\C,0,-0.802,-20.481001,-12.283\C,0,-1.
 657,-22.875999,-11.434\C,0,-4.327,-21.063,-11.046\C,0,-4.331,-21.563,-
 9.609\C,0,-3.95,-20.499001,-8.605\O,0,-2.992,-20.737,-7.867\O,0,-4.603
 ,-19.431999,-8.572\C,0,1.452,-20.034,-13.173\C,0,2.769,-20.487,-13.523
 \C,0,3.487,-19.410999,-14.027\C,0,2.526,-18.271999,-13.951\C,0,3.248,-
 21.954,-13.337\C,0,4.848,-19.458,-14.494\C,0,6.023,-20.097,-13.992\C,0
 ,1.931,-15.889,-14.27\C,0,2.322,-14.539,-14.688\C,0,1.194,-13.739,-14.
 465\C,0,0.167,-14.634,-13.918\C,0,3.717,-14.158,-15.246\C,0,0.995,-12.
 333,-14.685\C,0,1.891,-11.248,-14.539\C,0,-2.116,-15.047,-13.008\C,0,-
 3.443,-14.59,-12.61\C,0,-4.099,-15.687,-12.125\C,0,-3.174,-16.819,-12.
 245\C,0,-4.001,-13.156,-12.69\C,0,-5.525,-15.74,-11.562\C,0,-5.357,-15
 .764,-10.037\C,0,-6.585,-15.349,-9.233\O,0,-6.445,-15.222,-7.988\O,0,-
 7.668,-15.154,-9.838\N,0,-1.292,-19.194,-12.411\N,0,1.284,-18.655001,-
 13.442\N,0,0.629,-15.962,-13.807\N,0,-1.964,-16.415001,-12.778\Fe,0,-0
 .402,-17.572001,-13.123\H,0,-5.5654052,-15.1829708,-7.60539093\H,0,-5.
 08749005,-16.75782718,-9.74618749\H,0,-4.55168658,-15.10830396,-9.7792
 5399\H,0,-6.02223092,-16.62724052,-11.89436377\H,0,-6.07430299,-14.871
 80373,-11.86100076\H,0,-3.31581583,-12.53625783,-13.22976133\H,0,-4.94
 451449,-13.1680529,-13.19451475\H,0,-4.13016516,-12.76786754,-11.70127
 883\H,0,-4.46316194,-18.33105867,-11.44089848\H,0,-1.36505811,-13.1997
 123,-13.69491847\H,0,4.41882934,-14.93026432,-15.00947645\H,0,3.657163
 98,-14.04351916,-16.30817409\H,0,4.03799666,-13.23720635,-14.80554546\
 H,0,3.78931294,-16.77569619,-14.73536001\H,0,4.18904507,-21.96008368,-
 12.82778771\H,0,2.52677545,-22.49425537,-12.76006042\H,0,3.35791026,-2
 2.41750451,-14.29511445\H,0,0.7338584,-21.88383212,-12.5077276\H,0,-0.
 75318818,-23.04617832,-10.8871333\H,0,-2.4924481,-23.21056443,-10.8552
 1468\H,0,-1.62281814,-23.4168021,-12.35663948\H,0,-4.65799906,-21.8527
 2864,-11.68761382\H,0,-5.00813605,-20.24189546,-11.1281037\H,0,-5.3113
 3489,-21.92126563,-9.37343845\H,0,-3.63938766,-22.37528621,-9.52675961
 \H,0,-2.09583782,-20.6313472,-8.19461385\H,0,-1.04762584,-16.13552516,
 -16.00250783\H,0,-1.9791923,-17.40946593,-17.97286399\H,0,-1.38602936,
 -20.21643011,-14.95856838\H,0,-1.74563411,-20.99042479,-17.84730015\H,
 0,-3.36763089,-20.52217969,-17.39681194\H,0,-2.5566325,-19.70717867,-1
 8.71253289\H,0,2.74283065,-16.61187198,-10.53759093\H,0,2.13140383,-18
 .05772314,-9.77029807\H,0,2.43711724,-18.04413915,-11.49059498\H,0,0.8
 9035132,-16.90244772,-8.30531686\H,0,-0.79680988,-16.76883471,-7.87091
 921\H,0,0.04677072,-18.28197888,-7.64325023\H,0,-0.2111117,-18.8873568
 3,-9.78669677\H,0,-1.4942386,-17.71082528,-9.78695183\H,0,5.97726104,-
 21.1108158,-13.65290492\H,0,6.94878472,-19.56177891,-13.95510762\H,0,5
 .01189251,-18.90501463,-15.39524715\H,0,2.23140216,-10.96252302,-13.56
 558885\H,0,2.22828537,-10.71283971,-15.40198438\H,0,0.01221579,-12.063
 68705,-15.01135216\\Version=ES64L-G16RevA.03\State=5-A\HF=-3879.305707
 7\S2=6.164617\S2-1=0.\S2A=6.007361\RMSD=2.005e-09\Dipole=1.8779412,-1.
 4181881,-1.6360433\Quadrupole=-38.8349387,16.8067888,22.0281499,13.374
 1737,21.1587191,-5.8748516\PG=C01 [X(C41H46Fe1N6O4S1)]\\@


 SLITHERY-DITHERY
 FRIEDRICH A. KEKULE
 DREAMT ON A BUS OF THINGS
 FREUD WOULD THINK KEEN.
 MOST OF THE TIME THEY WERE
 HERPETOLOGICAL
 BITING THEIR TAILS IN THE
 SHAPE OF BENZENE.
 Job cpu time:       8 days  0 hours 54 minutes  5.6 seconds.
 Elapsed time:       2 days  0 hours 23 minutes 53.1 seconds.
 File lengths (MBytes):  RWF=   3452 Int=      0 D2E=      0 Chk=    289 Scr=      1
 Normal termination of Gaussian 16 at Sat Jan 21 13:47:20 2023.
