 Entering Gaussian System, Link 0=g16
 Input=/net/homes/chemie/zhartovska/work/BioModel/Konrad/1vb6/PDB/1vb612/1vb616/1vb616.com
 Output=/net/homes/chemie/zhartovska/work/BioModel/Konrad/1vb6/PDB/1vb612/1vb616/1vb616.log
 Initial command:
 /afs/math/software/gaussian/g16.A03/g16/l1.exe "/scratch/zhartovska_gaussian.JXGYhdC/Gau-24402.inp" -scrdir="/scratch/zhartovska_gaussian.JXGYhdC/"
 Entering Link 1 = /afs/math/software/gaussian/g16.A03/g16/l1.exe PID=     24403.
  
 Copyright (c) 1988,1990,1992,1993,1995,1998,2003,2009,2016,
            Gaussian, Inc.  All Rights Reserved.
  
 This is part of the Gaussian(R) 16 program.  It is based on
 the Gaussian(R) 09 system (copyright 2009, Gaussian, Inc.),
 the Gaussian(R) 03 system (copyright 2003, Gaussian, Inc.),
 the Gaussian(R) 98 system (copyright 1998, Gaussian, Inc.),
 the Gaussian(R) 94 system (copyright 1995, Gaussian, Inc.),
 the Gaussian 92(TM) system (copyright 1992, Gaussian, Inc.),
 the Gaussian 90(TM) system (copyright 1990, Gaussian, Inc.),
 the Gaussian 88(TM) system (copyright 1988, Gaussian, Inc.),
 the Gaussian 86(TM) system (copyright 1986, Carnegie Mellon
 University), and the Gaussian 82(TM) system (copyright 1983,
 Carnegie Mellon University). Gaussian is a federally registered
 trademark of Gaussian, Inc.
  
 This software contains proprietary and confidential information,
 including trade secrets, belonging to Gaussian, Inc.
  
 This software is provided under written license and may be
 used, copied, transmitted, or stored only in accord with that
 written license.
  
 The following legend is applicable only to US Government
 contracts under FAR:
  
                    RESTRICTED RIGHTS LEGEND
  
 Use, reproduction and disclosure by the US Government is
 subject to restrictions as set forth in subparagraphs (a)
 and (c) of the Commercial Computer Software - Restricted
 Rights clause in FAR 52.227-19.
  
 Gaussian, Inc.
 340 Quinnipiac St., Bldg. 40, Wallingford CT 06492
  
  
 ---------------------------------------------------------------
 Warning -- This program may not be used in any manner that
 competes with the business of Gaussian, Inc. or will provide
 assistance to any competitor of Gaussian, Inc.  The licensee
 of this program is prohibited from giving any competitor of
 Gaussian, Inc. access to this program.  By using this program,
 the user acknowledges that Gaussian, Inc. is engaged in the
 business of creating and licensing software in the field of
 computational chemistry and represents and warrants to the
 licensee that it is not a competitor of Gaussian, Inc. and that
 it will not use this program in any manner prohibited above.
 ---------------------------------------------------------------
  

 Cite this work as:
 Gaussian 16, Revision A.03,
 M. J. Frisch, G. W. Trucks, H. B. Schlegel, G. E. Scuseria, 
 M. A. Robb, J. R. Cheeseman, G. Scalmani, V. Barone, 
 G. A. Petersson, H. Nakatsuji, X. Li, M. Caricato, A. V. Marenich, 
 J. Bloino, B. G. Janesko, R. Gomperts, B. Mennucci, H. P. Hratchian, 
 J. V. Ortiz, A. F. Izmaylov, J. L. Sonnenberg, D. Williams-Young, 
 F. Ding, F. Lipparini, F. Egidi, J. Goings, B. Peng, A. Petrone, 
 T. Henderson, D. Ranasinghe, V. G. Zakrzewski, J. Gao, N. Rega, 
 G. Zheng, W. Liang, M. Hada, M. Ehara, K. Toyota, R. Fukuda, 
 J. Hasegawa, M. Ishida, T. Nakajima, Y. Honda, O. Kitao, H. Nakai, 
 T. Vreven, K. Throssell, J. A. Montgomery, Jr., J. E. Peralta, 
 F. Ogliaro, M. J. Bearpark, J. J. Heyd, E. N. Brothers, K. N. Kudin, 
 V. N. Staroverov, T. A. Keith, R. Kobayashi, J. Normand, 
 K. Raghavachari, A. P. Rendell, J. C. Burant, S. S. Iyengar, 
 J. Tomasi, M. Cossi, J. M. Millam, M. Klene, C. Adamo, R. Cammi, 
 J. W. Ochterski, R. L. Martin, K. Morokuma, O. Farkas, 
 J. B. Foresman, and D. J. Fox, Gaussian, Inc., Wallingford CT, 2016.
 
 ******************************************
 Gaussian 16:  ES64L-G16RevA.03 25-Dec-2016
                26-Jan-2023 
 ******************************************
 %nprocs=12
 Will use up to   12 processors via shared memory.
 %mem=16GB
 %oldchk=1vb6_III_D.chk
 %chk=1vb6_III_H.chk
 Copying data from "1vb6_III_D.chk" to current chk file "1vb6_III_H.chk"
 IOpt=  2 FromEx=T IUOpen= 4 IOptOp= 5 NList=   0 IFRang= 0 IUIn= 4 IUOut= 2.
 ----------------------------------------------------------------------
 # PBE1PBE/def2TZVP scf=qc empiricaldispersion=GD3BJ scf=maxcycle=999 g
 eom=check pop=nbo
 ----------------------------------------------------------------------
 1/29=2,38=1,172=1/1;
 2/12=2,40=1/2;
 3/5=44,7=101,11=2,14=-4,25=1,30=1,74=-13,124=41/1,2,3;
 4//1;
 5/5=2,7=999,8=3,38=5/8;
 6/7=2,8=2,9=2,10=2,28=1,40=1/1,7;
 99/5=1,9=1/99;
 ----------
 1vb6_III_H
 ----------
 Structure from the checkpoint file:  "1vb6_III_H.chk"
 Charge =  1 Multiplicity = 6
 Z-Matrix found in chk file.
 C,0,-2.424,-20.167999,-17.756001
 C,0,-1.867,-19.166,-16.792
 N,0,-1.739,-17.827999,-17.097
 C,0,-1.43,-19.306,-15.519
 C,0,-1.25,-17.184999,-16.052999
 N,0,-1.053,-18.058001,-15.081
 C,0,-0.046,-17.419001,-8.269
 C,0,-0.44,-17.849001,-9.667
 S,0,0.424,-16.907,-10.952
 C,0,2.103,-17.461,-10.658
 C,0,-3.488,-18.146999,-11.841
 C,0,0.475,-20.855,-12.647
 C,0,2.812,-16.966999,-14.344
 C,0,-1.12,-14.231,-13.549
 C,0,-2.587,-19.247999,-11.935
 C,0,-2.932,-20.6,-11.506
 C,0,-1.805,-21.367001,-11.727
 C,0,-0.802,-20.481001,-12.283
 C,0,-1.657,-22.875999,-11.434
 C,0,-4.327,-21.063,-11.046
 C,0,-4.331,-21.563,-9.609
 C,0,-3.95,-20.499001,-8.605
 O,0,-2.992,-20.737,-7.867
 O,0,-4.603,-19.431999,-8.572
 C,0,1.452,-20.034,-13.173
 C,0,2.769,-20.487,-13.523
 C,0,3.487,-19.410999,-14.027
 C,0,2.526,-18.271999,-13.951
 C,0,3.248,-21.954,-13.337
 C,0,4.848,-19.458,-14.494
 C,0,6.023,-20.097,-13.992
 C,0,1.931,-15.889,-14.27
 C,0,2.322,-14.539,-14.688
 C,0,1.194,-13.739,-14.465
 C,0,0.167,-14.634,-13.918
 C,0,3.717,-14.158,-15.246
 C,0,0.995,-12.333,-14.685
 C,0,1.891,-11.248,-14.539
 C,0,-2.116,-15.047,-13.008
 C,0,-3.443,-14.59,-12.61
 C,0,-4.099,-15.687,-12.125
 C,0,-3.174,-16.819,-12.245
 C,0,-4.001,-13.156,-12.69
 C,0,-5.525,-15.74,-11.562
 C,0,-5.357,-15.764,-10.037
 C,0,-6.585,-15.349,-9.233
 O,0,-6.445,-15.222,-7.988
 O,0,-7.668,-15.154,-9.838
 N,0,-1.292,-19.194,-12.411
 N,0,1.284,-18.655001,-13.442
 N,0,0.629,-15.962,-13.807
 N,0,-1.964,-16.415001,-12.778
 Fe,0,-0.402,-17.572001,-13.123
 H,0,-5.5654052,-15.1829708,-7.60539093
 H,0,-5.08749005,-16.75782718,-9.74618749
 H,0,-4.55168658,-15.10830396,-9.77925399
 H,0,-6.02223092,-16.62724052,-11.89436377
 H,0,-6.07430299,-14.87180373,-11.86100076
 H,0,-3.31581583,-12.53625783,-13.22976133
 H,0,-4.94451449,-13.1680529,-13.19451475
 H,0,-4.13016516,-12.76786754,-11.70127883
 H,0,-4.46316194,-18.33105867,-11.44089848
 H,0,-1.36505811,-13.1997123,-13.69491847
 H,0,4.41882934,-14.93026432,-15.00947645
 H,0,3.65716398,-14.04351916,-16.30817409
 H,0,4.03799666,-13.23720635,-14.80554546
 H,0,3.78931294,-16.77569619,-14.73536001
 H,0,4.18904507,-21.96008368,-12.82778771
 H,0,2.52677545,-22.49425537,-12.76006042
 H,0,3.35791026,-22.41750451,-14.29511445
 H,0,0.7338584,-21.88383212,-12.5077276
 H,0,-0.75318818,-23.04617832,-10.8871333
 H,0,-2.4924481,-23.21056443,-10.85521468
 H,0,-1.62281814,-23.4168021,-12.35663948
 H,0,-4.65799906,-21.85272864,-11.68761382
 H,0,-5.00813605,-20.24189546,-11.1281037
 H,0,-5.31133489,-21.92126563,-9.37343845
 H,0,-3.63938766,-22.37528621,-9.52675961
 H,0,-2.09583782,-20.6313472,-8.19461385
 H,0,-1.04762584,-16.13552516,-16.00250783
 H,0,-1.9791923,-17.40946593,-17.97286399
 H,0,-1.38602936,-20.21643011,-14.95856838
 H,0,-1.74563411,-20.99042479,-17.84730015
 H,0,-3.36763089,-20.52217969,-17.39681194
 H,0,-2.5566325,-19.70717867,-18.71253289
 H,0,2.74283065,-16.61187198,-10.53759093
 H,0,2.13140383,-18.05772314,-9.77029807
 H,0,2.43711724,-18.04413915,-11.49059498
 H,0,0.89035132,-16.90244772,-8.30531686
 H,0,-0.79680988,-16.76883471,-7.87091921
 H,0,0.04677072,-18.28197888,-7.64325023
 H,0,-0.2111117,-18.88735683,-9.78669677
 H,0,-1.4942386,-17.71082528,-9.78695183
 H,0,5.97726104,-21.1108158,-13.65290492
 H,0,6.94878472,-19.56177891,-13.95510762
 H,0,5.01189251,-18.90501463,-15.39524715
 H,0,2.23140216,-10.96252302,-13.56558885
 H,0,2.22828537,-10.71283971,-15.40198438
 H,0,0.01221579,-12.06368705,-15.01135216
 Recover connectivity data from disk.
 Stoichiometry    C41H46FeN6O4S(1+,6)
 Framework group  C1[X(C41H46FeN6O4S)]
 Deg. of freedom   291
 Full point group                 C1      NOp   1
 Largest Abelian subgroup         C1      NOp   1
 Largest concise Abelian subgroup C1      NOp   1
                         Standard orientation:                         
 ---------------------------------------------------------------------
 Center     Atomic      Atomic             Coordinates (Angstroms)
 Number     Number       Type             X           Y           Z
 ---------------------------------------------------------------------
      1          6           0       -1.455645   -1.216367    5.645066
      2          6           0       -1.437922   -0.507888    4.325486
      3          7           0       -1.724946    0.833824    4.194790
      4          6           0       -1.140542   -0.952647    3.082565
      5          6           0       -1.602520    1.187248    2.928847
      6          7           0       -1.248726    0.122251    2.231468
      7          6           0        1.457369   -0.728434   -4.075599
      8          6           0        1.065548   -0.818595   -2.615159
      9         16           0       -0.356622    0.230336   -2.212341
     10          6           0       -1.624416   -0.593734   -3.174630
     11          6           0        2.524573   -0.267427    0.801395
     12          6           0       -1.235425   -3.278693    0.106440
     13          6           0       -4.167596    0.511484   -0.597025
     14          6           0       -0.440137    3.547876    0.084674
     15          6           0        1.723095   -1.440851    0.685002
     16          6           0        2.260081   -2.790917    0.826210
     17          6           0        1.195074   -3.645858    0.621036
     18          6           0        0.037595   -2.813010    0.362684
     19          6           0        1.243141   -5.188840    0.662571
     20          6           0        3.695233   -3.140826    1.261979
     21          6           0        4.458942   -3.907309    0.192288
     22          6           0        4.646643   -3.122504   -1.086039
     23          8           0        4.221239   -3.628544   -2.126235
     24          8           0        5.205453   -2.003897   -1.036639
     25          6           0       -2.354157   -2.511307   -0.148123
     26          6           0       -3.652821   -3.061896   -0.417421
     27          6           0       -4.542963   -2.015933   -0.619723
     28          6           0       -3.700355   -0.793915   -0.467066
     29          6           0       -3.943238   -4.588176   -0.464904
     30          6           0       -5.945936   -2.155310   -0.911031
     31          6           0       -6.674414   -3.034085   -1.770115
     32          6           0       -3.393321    1.663766   -0.468714
     33          6           0       -3.963675    3.003475   -0.641865
     34          6           0       -2.897215    3.890208   -0.445699
     35          6           0       -1.723900    3.053648   -0.165588
     36          6           0       -5.449107    3.292945   -0.976901
     37          6           0       -2.862187    5.325805   -0.497364
     38          6           0       -3.563148    6.228976   -1.330607
     39          6           0        0.702569    2.784993    0.335242
     40          6           0        2.034863    3.331427    0.568878
     41          6           0        2.862540    2.260355    0.760516
     42          6           0        2.027415    1.058652    0.660890
     43          6           0        2.448569    4.815647    0.576403
     44          6           0        4.372547    2.292659    1.029013
     45          6           0        5.029521    1.947800   -0.314074
     46          6           0        6.490995    2.360453   -0.457022
     47          8           0        7.022937    2.220889   -1.589857
     48          8           0        7.093146    2.815695    0.546526
     49          7           0        0.370227   -1.471399    0.410538
     50          7           0       -2.370852   -1.096552   -0.168459
     51          7           0       -2.041053    1.679360   -0.175407
     52          7           0        0.712286    1.390735    0.393382
     53         26           0       -0.782814    0.122142    0.163453
     54          1           0        6.474175    2.064160   -2.361800
     55          1           0        4.966016    0.889017   -0.454950
     56          1           0        4.470177    2.424508   -1.091752
     57          1           0        4.633603    1.563780    1.767583
     58          1           0        4.671668    3.269113    1.348331
     59          1           0        1.573790    5.429988    0.528998
     60          1           0        2.987461    5.031148    1.475322
     61          1           0        3.071750    5.016503   -0.269885
     62          1           0        3.567100   -0.391843    1.007692
     63          1           0       -0.321977    4.611332    0.084176
     64          1           0       -5.912146    2.401137   -1.344558
     65          1           0       -5.956697    3.620305   -0.093675
     66          1           0       -5.503894    4.057220   -1.723749
     67          1           0       -5.207468    0.640930   -0.813380
     68          1           0       -4.477318   -4.821874   -1.362146
     69          1           0       -3.019355   -5.127701   -0.448976
     70          1           0       -4.532955   -4.865603    0.383723
     71          1           0       -1.368852   -4.340340    0.104869
     72          1           0        0.762726   -5.584207   -0.207939
     73          1           0        2.262454   -5.513429    0.685859
     74          1           0        0.737545   -5.537979    1.538571
     75          1           0        3.651279   -3.737057    2.149378
     76          1           0        4.220968   -2.234648    1.479564
     77          1           0        5.421950   -4.167973    0.579031
     78          1           0        3.924240   -4.806376   -0.032817
     79          1           0        3.285043   -3.583719   -2.333908
     80          1           0       -1.762546    2.169010    2.534596
     81          1           0       -1.985404    1.444514    4.942600
     82          1           0       -0.871774   -1.952557    2.812668
     83          1           0       -2.069933   -2.089488    5.572889
     84          1           0       -0.459114   -1.502273    5.909799
     85          1           0       -1.850550   -0.563446    6.395163
     86          1           0       -2.117507    0.120242   -3.800729
     87          1           0       -1.175027   -1.350971   -3.782529
     88          1           0       -2.337578   -1.042437   -2.515111
     89          1           0        0.634145   -0.347089   -4.642855
     90          1           0        2.296535   -0.072830   -4.179921
     91          1           0        1.718199   -1.701695   -4.435642
     92          1           0        0.821967   -1.834691   -2.384684
     93          1           0        1.898331   -0.517455   -2.014586
     94          1           0       -6.443934   -4.078838   -1.786537
     95          1           0       -7.450505   -2.647511   -2.397127
     96          1           0       -6.565552   -1.464063   -0.378910
     97          1           0       -3.346385    6.269239   -2.377647
     98          1           0       -4.310081    6.871824   -0.913788
     99          1           0       -2.200246    5.785001    0.206819
 ---------------------------------------------------------------------
 Rotational constants (GHZ):           0.0646479           0.0458960           0.0358229
 Standard basis: def2TZVP (5D, 7F)
 There are  2206 symmetry adapted cartesian basis functions of A   symmetry.
 There are  1939 symmetry adapted basis functions of A   symmetry.
  1939 basis functions,  3140 primitive gaussians,  2206 cartesian basis functions
   206 alpha electrons      201 beta electrons
       nuclear repulsion energy      8883.6309588387 Hartrees.
 NAtoms=   99 NActive=   99 NUniq=   99 SFac= 1.00D+00 NAtFMM=   60 NAOKFM=T Big=T
 Integral buffers will be    131072 words long.
 Raffenetti 2 integral format.
 Two-electron integral symmetry is turned on.
 Nuclear repulsion after empirical dispersion term =     8883.4835768077 Hartrees.
 One-electron integrals computed using PRISM.
   1 Symmetry operations used in ECPInt.
 ECPInt:  NShTT=  299151 NPrTT=  925475 LenC2=  220413 LenP2D=  439532.
 LDataN:  DoStor=T MaxTD1= 6 Len=  172
 NBasis=  1939 RedAO= T EigKep=  3.02D-06  NBF=  1939
 NBsUse=  1939 1.00D-06 EigRej= -1.00D+00 NBFU=  1939
 ExpMin= 4.20D-02 ExpMax= 3.01D+05 ExpMxC= 2.91D+03 IAcc=3 IRadAn=         5 AccDes= 0.00D+00
 Harris functional with IExCor= 1009 and IRadAn=       5 diagonalized for initial guess.
 HarFok:  IExCor= 1009 AccDes= 0.00D+00 IRadAn=         5 IDoV= 1 UseB2=F ITyADJ=14
 ICtDFT=  3500011 ScaDFX=  1.000000  1.000000  1.000000  1.000000
 FoFCou: FMM=F IPFlag=           0 FMFlag=      100000 FMFlg1=        2001
         NFxFlg=           0 DoJE=T BraDBF=F KetDBF=T FulRan=T
         wScrn=  0.000000 ICntrl=       500 IOpCl=  0 I1Cent=   200000004 NGrid=           0
         NMat0=    1 NMatS0=      1 NMatT0=    0 NMatD0=    1 NMtDS0=    0 NMtDT0=    0
 Petite list used in FoFCou.
 Initial guess <Sx>= 0.0000 <Sy>= 0.0000 <Sz>= 2.5000 <S**2>= 8.7500 S= 2.5000
 Gradient too large for Newton-Raphson -- use scaled steepest descent instead.
  Beta Gap=    -0.977 HL deriv= 2.36D-03 Rot set to   2.73D+00
     Minimum is close to point  2 DX=  1.97D-03 DF= -1.26D-04 DXR=  6.53D-03 DFR=  4.26D-05 which will be used.
 Gradient too large for Newton-Raphson -- use scaled steepest descent instead.
     Minimum is close to point  3 DX=  8.65D-03 DF= -1.38D-04 DXR=  2.12D-02 DFR=  4.06D-04 which will be used.
 Gradient too large for Newton-Raphson -- use scaled steepest descent instead.
     Minimum is close to point  4 DX= -2.33D-03 DF= -3.39D-05 DXR=  2.39D-02 DFR=  5.67D-04 which will be used.
 Gradient too large for Newton-Raphson -- use scaled steepest descent instead.
     Accept linear search using points  1 and  2.
 Gradient too large for Newton-Raphson -- use scaled steepest descent instead.
     Accept linear search using points  1 and  2.
 Gradient too large for Newton-Raphson -- use scaled steepest descent instead.
     Minimum is close to point  7 DX=  3.60D-02 DF= -6.51D-05 DXR=  2.91D-02 DFR=  8.74D-04 which will be used.
 Gradient too large for Newton-Raphson -- use scaled steepest descent instead.
 Restarting incremental Fock formation.
 Gradient too large for Newton-Raphson -- use scaled steepest descent instead.
 Gradient too large for Newton-Raphson -- use scaled steepest descent instead.
     Minimum is close to point  2 DX= -1.73D-02 DF= -6.26D-05 DXR=  9.49D-02 DFR=  9.10D-03 which will be used.
 Gradient too large for Newton-Raphson -- use scaled steepest descent instead.
 Gradient too large for Newton-Raphson -- use scaled steepest descent instead.
 Gradient too large for Newton-Raphson -- use scaled steepest descent instead.
 Gradient too large for Newton-Raphson -- use scaled steepest descent instead.
 Gradient too large for Newton-Raphson -- use scaled steepest descent instead.
 Restarting incremental Fock formation.
     Accept linear search using points  1 and  2.
 Gradient too large for Newton-Raphson -- use scaled steepest descent instead.
     Accept linear search using points  4 and  5.
 Gradient too large for Newton-Raphson -- use scaled steepest descent instead.
 Gradient too large for Newton-Raphson -- use scaled steepest descent instead.
 Gradient too large for Newton-Raphson -- use scaled steepest descent instead.
 Gradient too large for Newton-Raphson -- use scaled steepest descent instead.
     Minimum is close to point  2 DX=  7.40D-02 DF= -2.45D-05 DXR=  7.60D-02 DFR=  5.81D-03 which will be used.
 Gradient too large for Newton-Raphson -- use scaled steepest descent instead.
     Minimum is close to point  3 DX= -1.03D-02 DF= -6.36D-06 DXR=  5.45D-02 DFR=  2.98D-03 which will be used.
 Gradient too large for Newton-Raphson -- use scaled steepest descent instead.
 Restarting incremental Fock formation.
     Accept linear search using points  1 and  2.
 Gradient too large for Newton-Raphson -- use scaled steepest descent instead.
     Accept linear search using points  1 and  2.
 Gradient too large for Newton-Raphson -- use scaled steepest descent instead.
 Gradient too large for Newton-Raphson -- use scaled steepest descent instead.
     Minimum is close to point  3 DX= -9.51D-03 DF= -2.09D-06 DXR=  4.99D-02 DFR=  2.50D-03 which will be used.
 Gradient too large for Newton-Raphson -- use scaled steepest descent instead.
 Gradient too large for Newton-Raphson -- use scaled steepest descent instead.
     Accept linear search using points  1 and  2.
 LinEq1:  Iter=  0 NonCon=     1 RMS=5.34D-05 Max=2.49D-02 NDo=     1
 AX will form     1 AO Fock derivatives at one time.
 LinEq1:  Iter=  1 NonCon=     1 RMS=4.17D-05 Max=1.07D-02 NDo=     1
 LinEq1:  Iter=  2 NonCon=     1 RMS=5.91D-05 Max=2.77D-02 NDo=     1
 LinEq1:  Iter=  3 NonCon=     1 RMS=5.90D-05 Max=1.39D-02 NDo=     1
 LinEq1:  Iter=  4 NonCon=     1 RMS=4.42D-05 Max=1.07D-02 NDo=     1
 LinEq1:  Iter=  5 NonCon=     1 RMS=5.74D-05 Max=1.43D-02 NDo=     1
 LinEq1:  Iter=  6 NonCon=     1 RMS=4.44D-05 Max=7.86D-03 NDo=     1
 LinEq1:  Iter=  7 NonCon=     1 RMS=6.01D-05 Max=2.34D-02 NDo=     1
 LinEq1:  Iter=  8 NonCon=     1 RMS=5.63D-05 Max=1.01D-02 NDo=     1
 LinEq1:  Iter=  9 NonCon=     1 RMS=5.62D-05 Max=1.28D-02 NDo=     1
 LinEq1:  Iter= 10 NonCon=     1 RMS=4.54D-05 Max=8.42D-03 NDo=     1
 LinEq1:  Iter= 11 NonCon=     1 RMS=4.93D-05 Max=1.14D-02 NDo=     1
 LinEq1:  Iter= 12 NonCon=     1 RMS=4.59D-05 Max=1.18D-02 NDo=     1
 LinEq1:  Iter= 13 NonCon=     1 RMS=3.96D-05 Max=5.81D-03 NDo=     1
 LinEq1:  Iter= 14 NonCon=     1 RMS=3.23D-05 Max=5.17D-03 NDo=     1
 LinEq1:  Iter= 15 NonCon=     1 RMS=3.09D-05 Max=8.36D-03 NDo=     1
 LinEq1:  Iter= 16 NonCon=     1 RMS=2.77D-05 Max=4.55D-03 NDo=     1
 LinEq1:  Iter= 17 NonCon=     1 RMS=2.42D-05 Max=3.82D-03 NDo=     1
 LinEq1:  Iter= 18 NonCon=     1 RMS=2.12D-05 Max=2.46D-03 NDo=     1
 LinEq1:  Iter= 19 NonCon=     1 RMS=1.93D-05 Max=4.19D-03 NDo=     1
 LinEq1:  Iter= 20 NonCon=     1 RMS=1.80D-05 Max=2.55D-03 NDo=     1
 LinEq1:  Iter= 21 NonCon=     1 RMS=1.92D-05 Max=5.01D-03 NDo=     1
 LinEq1:  Iter= 22 NonCon=     1 RMS=1.41D-05 Max=2.34D-03 NDo=     1
 LinEq1:  Iter= 23 NonCon=     1 RMS=1.07D-05 Max=1.90D-03 NDo=     1
 LinEq1:  Iter= 24 NonCon=     1 RMS=8.61D-06 Max=1.76D-03 NDo=     1
 LinEq1:  Iter= 25 NonCon=     1 RMS=7.03D-06 Max=1.46D-03 NDo=     1
 LinEq1:  Iter= 26 NonCon=     1 RMS=5.16D-06 Max=7.66D-04 NDo=     1
 LinEq1:  Iter= 27 NonCon=     1 RMS=3.79D-06 Max=4.66D-04 NDo=     1
 LinEq1:  Iter= 28 NonCon=     1 RMS=3.52D-06 Max=5.71D-04 NDo=     1
 LinEq1:  Iter= 29 NonCon=     1 RMS=2.83D-06 Max=7.09D-04 NDo=     1
 LinEq1:  Iter= 30 NonCon=     1 RMS=2.56D-06 Max=8.32D-04 NDo=     1
 LinEq1:  Iter= 31 NonCon=     1 RMS=2.02D-06 Max=5.17D-04 NDo=     1
 LinEq1:  Iter= 32 NonCon=     1 RMS=1.58D-06 Max=2.46D-04 NDo=     1
 LinEq1:  Iter= 33 NonCon=     1 RMS=1.13D-06 Max=1.16D-04 NDo=     1
 LinEq1:  Iter= 34 NonCon=     1 RMS=8.94D-07 Max=1.23D-04 NDo=     1
 LinEq1:  Iter= 35 NonCon=     1 RMS=7.02D-07 Max=1.24D-04 NDo=     1
 LinEq1:  Iter= 36 NonCon=     1 RMS=7.00D-07 Max=1.25D-04 NDo=     1
 LinEq1:  Iter= 37 NonCon=     1 RMS=5.43D-07 Max=6.75D-05 NDo=     1
 LinEq1:  Iter= 38 NonCon=     1 RMS=4.11D-07 Max=6.95D-05 NDo=     1
 LinEq1:  Iter= 39 NonCon=     1 RMS=2.76D-07 Max=3.49D-05 NDo=     1
 LinEq1:  Iter= 40 NonCon=     1 RMS=2.20D-07 Max=3.65D-05 NDo=     1
 LinEq1:  Iter= 41 NonCon=     1 RMS=1.60D-07 Max=2.37D-05 NDo=     1
 LinEq1:  Iter= 42 NonCon=     1 RMS=1.03D-07 Max=1.16D-05 NDo=     1
 LinEq1:  Iter= 43 NonCon=     1 RMS=6.84D-08 Max=1.01D-05 NDo=     1
 LinEq1:  Iter= 44 NonCon=     1 RMS=5.76D-08 Max=8.15D-06 NDo=     1
 LinEq1:  Iter= 45 NonCon=     1 RMS=4.98D-08 Max=5.70D-06 NDo=     1
 LinEq1:  Iter= 46 NonCon=     1 RMS=3.69D-08 Max=5.08D-06 NDo=     1
 LinEq1:  Iter= 47 NonCon=     1 RMS=2.56D-08 Max=3.49D-06 NDo=     1
 LinEq1:  Iter= 48 NonCon=     1 RMS=1.67D-08 Max=1.60D-06 NDo=     1
 LinEq1:  Iter= 49 NonCon=     1 RMS=1.28D-08 Max=1.40D-06 NDo=     1
 LinEq1:  Iter= 50 NonCon=     1 RMS=1.06D-08 Max=1.32D-06 NDo=     1
 LinEq1:  Iter= 51 NonCon=     1 RMS=8.30D-09 Max=1.05D-06 NDo=     1
 LinEq1:  Iter= 52 NonCon=     1 RMS=5.50D-09 Max=8.10D-07 NDo=     1
 LinEq1:  Iter= 53 NonCon=     0 RMS=3.69D-09 Max=4.30D-07 NDo=     1
 Linear equations converged to 7.320D-08 7.320D-07 after    53 iterations.
     Minimum is close to point  3 DX=  2.90D-03 DF= -5.89D-07 DXR=  2.82D-02 DFR=  7.95D-04 which will be used.
 LinEq1:  Iter=  0 NonCon=     1 RMS=4.78D-05 Max=2.22D-02 NDo=     1
 LinEq1:  Iter=  1 NonCon=     1 RMS=4.58D-05 Max=8.44D-03 NDo=     1
 LinEq1:  Iter=  2 NonCon=     1 RMS=5.17D-05 Max=2.39D-02 NDo=     1
 LinEq1:  Iter=  3 NonCon=     1 RMS=5.11D-05 Max=1.09D-02 NDo=     1
 LinEq1:  Iter=  4 NonCon=     1 RMS=3.79D-05 Max=9.47D-03 NDo=     1
 LinEq1:  Iter=  5 NonCon=     1 RMS=4.73D-05 Max=1.03D-02 NDo=     1
 LinEq1:  Iter=  6 NonCon=     1 RMS=3.77D-05 Max=6.94D-03 NDo=     1
 LinEq1:  Iter=  7 NonCon=     1 RMS=5.22D-05 Max=1.93D-02 NDo=     1
 LinEq1:  Iter=  8 NonCon=     1 RMS=4.89D-05 Max=9.50D-03 NDo=     1
 LinEq1:  Iter=  9 NonCon=     1 RMS=5.18D-05 Max=1.37D-02 NDo=     1
 LinEq1:  Iter= 10 NonCon=     1 RMS=4.25D-05 Max=8.62D-03 NDo=     1
 LinEq1:  Iter= 11 NonCon=     1 RMS=4.68D-05 Max=9.47D-03 NDo=     1
 LinEq1:  Iter= 12 NonCon=     1 RMS=4.29D-05 Max=7.74D-03 NDo=     1
 LinEq1:  Iter= 13 NonCon=     1 RMS=3.69D-05 Max=5.59D-03 NDo=     1
 LinEq1:  Iter= 14 NonCon=     1 RMS=2.91D-05 Max=4.19D-03 NDo=     1
 LinEq1:  Iter= 15 NonCon=     1 RMS=2.67D-05 Max=5.95D-03 NDo=     1
 LinEq1:  Iter= 16 NonCon=     1 RMS=2.40D-05 Max=5.14D-03 NDo=     1
 LinEq1:  Iter= 17 NonCon=     1 RMS=2.17D-05 Max=3.92D-03 NDo=     1
 LinEq1:  Iter= 18 NonCon=     1 RMS=1.64D-05 Max=1.79D-03 NDo=     1
 LinEq1:  Iter= 19 NonCon=     1 RMS=1.49D-05 Max=2.56D-03 NDo=     1
 LinEq1:  Iter= 20 NonCon=     1 RMS=1.47D-05 Max=2.27D-03 NDo=     1
 LinEq1:  Iter= 21 NonCon=     1 RMS=1.52D-05 Max=4.29D-03 NDo=     1
 LinEq1:  Iter= 22 NonCon=     1 RMS=1.17D-05 Max=2.17D-03 NDo=     1
 LinEq1:  Iter= 23 NonCon=     1 RMS=8.50D-06 Max=9.24D-04 NDo=     1
 LinEq1:  Iter= 24 NonCon=     1 RMS=6.62D-06 Max=1.08D-03 NDo=     1
 LinEq1:  Iter= 25 NonCon=     1 RMS=5.47D-06 Max=8.88D-04 NDo=     1
 LinEq1:  Iter= 26 NonCon=     1 RMS=4.03D-06 Max=6.87D-04 NDo=     1
 LinEq1:  Iter= 27 NonCon=     1 RMS=3.11D-06 Max=3.67D-04 NDo=     1
 LinEq1:  Iter= 28 NonCon=     1 RMS=2.83D-06 Max=4.28D-04 NDo=     1
 LinEq1:  Iter= 29 NonCon=     1 RMS=2.00D-06 Max=2.39D-04 NDo=     1
 LinEq1:  Iter= 30 NonCon=     1 RMS=1.64D-06 Max=4.12D-04 NDo=     1
 LinEq1:  Iter= 31 NonCon=     1 RMS=1.25D-06 Max=3.96D-04 NDo=     1
 LinEq1:  Iter= 32 NonCon=     1 RMS=1.14D-06 Max=2.86D-04 NDo=     1
 LinEq1:  Iter= 33 NonCon=     1 RMS=8.61D-07 Max=1.39D-04 NDo=     1
 LinEq1:  Iter= 34 NonCon=     1 RMS=6.54D-07 Max=1.02D-04 NDo=     1
 LinEq1:  Iter= 35 NonCon=     1 RMS=4.95D-07 Max=7.15D-05 NDo=     1
 LinEq1:  Iter= 36 NonCon=     1 RMS=4.36D-07 Max=7.40D-05 NDo=     1
 LinEq1:  Iter= 37 NonCon=     1 RMS=3.81D-07 Max=6.40D-05 NDo=     1
 LinEq1:  Iter= 38 NonCon=     1 RMS=3.00D-07 Max=4.13D-05 NDo=     1
 LinEq1:  Iter= 39 NonCon=     1 RMS=2.34D-07 Max=3.79D-05 NDo=     1
 LinEq1:  Iter= 40 NonCon=     1 RMS=1.89D-07 Max=1.77D-05 NDo=     1
 LinEq1:  Iter= 41 NonCon=     1 RMS=1.41D-07 Max=1.73D-05 NDo=     1
 LinEq1:  Iter= 42 NonCon=     1 RMS=9.35D-08 Max=1.05D-05 NDo=     1
 LinEq1:  Iter= 43 NonCon=     1 RMS=7.08D-08 Max=1.18D-05 NDo=     1
 LinEq1:  Iter= 44 NonCon=     1 RMS=6.70D-08 Max=1.21D-05 NDo=     1
 LinEq1:  Iter= 45 NonCon=     1 RMS=5.68D-08 Max=7.12D-06 NDo=     1
 LinEq1:  Iter= 46 NonCon=     1 RMS=3.69D-08 Max=5.15D-06 NDo=     1
 LinEq1:  Iter= 47 NonCon=     1 RMS=2.70D-08 Max=4.04D-06 NDo=     1
 LinEq1:  Iter= 48 NonCon=     1 RMS=2.12D-08 Max=2.64D-06 NDo=     1
 LinEq1:  Iter= 49 NonCon=     1 RMS=1.56D-08 Max=2.42D-06 NDo=     1
 LinEq1:  Iter= 50 NonCon=     1 RMS=1.13D-08 Max=1.39D-06 NDo=     1
 LinEq1:  Iter= 51 NonCon=     1 RMS=7.95D-09 Max=1.05D-06 NDo=     1
 LinEq1:  Iter= 52 NonCon=     0 RMS=5.26D-09 Max=6.46D-07 NDo=     1
 Linear equations converged to 7.324D-08 7.324D-07 after    52 iterations.
     Accept linear search using points  1 and  2.
 LinEq1:  Iter=  0 NonCon=     1 RMS=1.59D-05 Max=6.14D-03 NDo=     1
 LinEq1:  Iter=  1 NonCon=     1 RMS=3.42D-05 Max=7.68D-03 NDo=     1
 LinEq1:  Iter=  2 NonCon=     1 RMS=2.16D-05 Max=5.99D-03 NDo=     1
 LinEq1:  Iter=  3 NonCon=     1 RMS=2.75D-05 Max=7.06D-03 NDo=     1
 LinEq1:  Iter=  4 NonCon=     1 RMS=2.24D-05 Max=6.32D-03 NDo=     1
 LinEq1:  Iter=  5 NonCon=     1 RMS=2.60D-05 Max=7.16D-03 NDo=     1
 LinEq1:  Iter=  6 NonCon=     1 RMS=2.10D-05 Max=4.94D-03 NDo=     1
 LinEq1:  Iter=  7 NonCon=     1 RMS=2.39D-05 Max=6.73D-03 NDo=     1
 LinEq1:  Iter=  8 NonCon=     1 RMS=2.92D-05 Max=7.76D-03 NDo=     1
 LinEq1:  Iter=  9 NonCon=     1 RMS=2.79D-05 Max=8.25D-03 NDo=     1
 LinEq1:  Iter= 10 NonCon=     1 RMS=2.37D-05 Max=4.38D-03 NDo=     1
 LinEq1:  Iter= 11 NonCon=     1 RMS=2.32D-05 Max=5.94D-03 NDo=     1
 LinEq1:  Iter= 12 NonCon=     1 RMS=2.05D-05 Max=3.29D-03 NDo=     1
 LinEq1:  Iter= 13 NonCon=     1 RMS=1.74D-05 Max=2.37D-03 NDo=     1
 LinEq1:  Iter= 14 NonCon=     1 RMS=1.41D-05 Max=2.23D-03 NDo=     1
 LinEq1:  Iter= 15 NonCon=     1 RMS=1.36D-05 Max=2.07D-03 NDo=     1
 LinEq1:  Iter= 16 NonCon=     1 RMS=9.90D-06 Max=1.43D-03 NDo=     1
 LinEq1:  Iter= 17 NonCon=     1 RMS=8.76D-06 Max=1.80D-03 NDo=     1
 LinEq1:  Iter= 18 NonCon=     1 RMS=6.88D-06 Max=7.97D-04 NDo=     1
 LinEq1:  Iter= 19 NonCon=     1 RMS=5.78D-06 Max=1.02D-03 NDo=     1
 LinEq1:  Iter= 20 NonCon=     1 RMS=4.25D-06 Max=5.41D-04 NDo=     1
 LinEq1:  Iter= 21 NonCon=     1 RMS=3.27D-06 Max=5.48D-04 NDo=     1
 LinEq1:  Iter= 22 NonCon=     1 RMS=3.32D-06 Max=7.08D-04 NDo=     1
 LinEq1:  Iter= 23 NonCon=     1 RMS=3.10D-06 Max=6.07D-04 NDo=     1
 LinEq1:  Iter= 24 NonCon=     1 RMS=2.63D-06 Max=4.12D-04 NDo=     1
 LinEq1:  Iter= 25 NonCon=     1 RMS=2.37D-06 Max=2.90D-04 NDo=     1
 LinEq1:  Iter= 26 NonCon=     1 RMS=2.17D-06 Max=3.12D-04 NDo=     1
 LinEq1:  Iter= 27 NonCon=     1 RMS=1.69D-06 Max=2.21D-04 NDo=     1
 LinEq1:  Iter= 28 NonCon=     1 RMS=1.44D-06 Max=2.04D-04 NDo=     1
 LinEq1:  Iter= 29 NonCon=     1 RMS=9.79D-07 Max=1.35D-04 NDo=     1
 LinEq1:  Iter= 30 NonCon=     1 RMS=7.51D-07 Max=1.12D-04 NDo=     1
 LinEq1:  Iter= 31 NonCon=     1 RMS=5.48D-07 Max=6.54D-05 NDo=     1
 LinEq1:  Iter= 32 NonCon=     1 RMS=4.71D-07 Max=7.12D-05 NDo=     1
 LinEq1:  Iter= 33 NonCon=     1 RMS=4.12D-07 Max=7.80D-05 NDo=     1
 LinEq1:  Iter= 34 NonCon=     1 RMS=3.31D-07 Max=5.47D-05 NDo=     1
 LinEq1:  Iter= 35 NonCon=     1 RMS=2.28D-07 Max=4.10D-05 NDo=     1
 LinEq1:  Iter= 36 NonCon=     1 RMS=1.91D-07 Max=3.46D-05 NDo=     1
 LinEq1:  Iter= 37 NonCon=     1 RMS=1.49D-07 Max=2.62D-05 NDo=     1
 LinEq1:  Iter= 38 NonCon=     1 RMS=1.11D-07 Max=1.85D-05 NDo=     1
 LinEq1:  Iter= 39 NonCon=     1 RMS=9.72D-08 Max=1.70D-05 NDo=     1
 LinEq1:  Iter= 40 NonCon=     1 RMS=7.88D-08 Max=1.33D-05 NDo=     1
 LinEq1:  Iter= 41 NonCon=     1 RMS=6.65D-08 Max=1.05D-05 NDo=     1
 LinEq1:  Iter= 42 NonCon=     1 RMS=4.59D-08 Max=5.43D-06 NDo=     1
 LinEq1:  Iter= 43 NonCon=     1 RMS=3.37D-08 Max=4.78D-06 NDo=     1
 LinEq1:  Iter= 44 NonCon=     1 RMS=2.85D-08 Max=3.74D-06 NDo=     1
 LinEq1:  Iter= 45 NonCon=     1 RMS=2.11D-08 Max=3.11D-06 NDo=     1
 LinEq1:  Iter= 46 NonCon=     1 RMS=1.75D-08 Max=2.43D-06 NDo=     1
 LinEq1:  Iter= 47 NonCon=     1 RMS=1.36D-08 Max=1.49D-06 NDo=     1
 LinEq1:  Iter= 48 NonCon=     1 RMS=9.91D-09 Max=8.74D-07 NDo=     1
 LinEq1:  Iter= 49 NonCon=     1 RMS=7.44D-09 Max=9.51D-07 NDo=     1
 LinEq1:  Iter= 50 NonCon=     1 RMS=5.84D-09 Max=6.58D-07 NDo=     1
 LinEq1:  Iter= 51 NonCon=     0 RMS=3.49D-09 Max=4.24D-07 NDo=     1
 Linear equations converged to 5.566D-08 5.566D-07 after    51 iterations.
 Restarting incremental Fock formation.
     Minimum is close to point  2 DX=  1.45D-02 DF= -8.95D-09 DXR=  1.43D-02 DFR=  2.04D-04 which will be used.
 LinEq1:  Iter=  0 NonCon=     1 RMS=4.55D-07 Max=1.62D-04 NDo=     1
 LinEq1:  Iter=  1 NonCon=     1 RMS=8.56D-07 Max=3.52D-04 NDo=     1
 LinEq1:  Iter=  2 NonCon=     1 RMS=1.13D-06 Max=3.25D-04 NDo=     1
 LinEq1:  Iter=  3 NonCon=     1 RMS=1.74D-06 Max=6.70D-04 NDo=     1
 LinEq1:  Iter=  4 NonCon=     1 RMS=1.85D-06 Max=3.15D-04 NDo=     1
 LinEq1:  Iter=  5 NonCon=     1 RMS=1.22D-06 Max=3.44D-04 NDo=     1
 LinEq1:  Iter=  6 NonCon=     1 RMS=1.59D-06 Max=4.87D-04 NDo=     1
 LinEq1:  Iter=  7 NonCon=     1 RMS=1.20D-06 Max=2.39D-04 NDo=     1
 LinEq1:  Iter=  8 NonCon=     1 RMS=1.49D-06 Max=2.19D-04 NDo=     1
 LinEq1:  Iter=  9 NonCon=     1 RMS=1.51D-06 Max=2.53D-04 NDo=     1
 LinEq1:  Iter= 10 NonCon=     1 RMS=1.38D-06 Max=2.42D-04 NDo=     1
 LinEq1:  Iter= 11 NonCon=     1 RMS=1.15D-06 Max=1.87D-04 NDo=     1
 LinEq1:  Iter= 12 NonCon=     1 RMS=1.21D-06 Max=1.82D-04 NDo=     1
 LinEq1:  Iter= 13 NonCon=     1 RMS=9.97D-07 Max=1.46D-04 NDo=     1
 LinEq1:  Iter= 14 NonCon=     1 RMS=9.89D-07 Max=1.56D-04 NDo=     1
 LinEq1:  Iter= 15 NonCon=     1 RMS=7.61D-07 Max=1.11D-04 NDo=     1
 LinEq1:  Iter= 16 NonCon=     1 RMS=6.08D-07 Max=8.70D-05 NDo=     1
 LinEq1:  Iter= 17 NonCon=     1 RMS=5.49D-07 Max=7.99D-05 NDo=     1
 LinEq1:  Iter= 18 NonCon=     1 RMS=5.59D-07 Max=8.06D-05 NDo=     1
 LinEq1:  Iter= 19 NonCon=     1 RMS=4.29D-07 Max=6.53D-05 NDo=     1
 LinEq1:  Iter= 20 NonCon=     1 RMS=4.14D-07 Max=6.47D-05 NDo=     1
 LinEq1:  Iter= 21 NonCon=     1 RMS=3.26D-07 Max=6.55D-05 NDo=     1
 LinEq1:  Iter= 22 NonCon=     1 RMS=2.71D-07 Max=3.77D-05 NDo=     1
 LinEq1:  Iter= 23 NonCon=     1 RMS=2.24D-07 Max=3.06D-05 NDo=     1
 LinEq1:  Iter= 24 NonCon=     1 RMS=1.61D-07 Max=2.00D-05 NDo=     1
 LinEq1:  Iter= 25 NonCon=     1 RMS=1.15D-07 Max=1.81D-05 NDo=     1
 LinEq1:  Iter= 26 NonCon=     1 RMS=8.49D-08 Max=1.10D-05 NDo=     1
 LinEq1:  Iter= 27 NonCon=     1 RMS=6.66D-08 Max=1.07D-05 NDo=     1
 LinEq1:  Iter= 28 NonCon=     1 RMS=5.69D-08 Max=7.98D-06 NDo=     1
 LinEq1:  Iter= 29 NonCon=     1 RMS=4.00D-08 Max=5.58D-06 NDo=     1
 LinEq1:  Iter= 30 NonCon=     1 RMS=3.08D-08 Max=5.37D-06 NDo=     1
 LinEq1:  Iter= 31 NonCon=     1 RMS=2.29D-08 Max=3.63D-06 NDo=     1
 LinEq1:  Iter= 32 NonCon=     1 RMS=1.97D-08 Max=3.56D-06 NDo=     1
 LinEq1:  Iter= 33 NonCon=     1 RMS=1.65D-08 Max=2.60D-06 NDo=     1
 LinEq1:  Iter= 34 NonCon=     1 RMS=1.23D-08 Max=2.03D-06 NDo=     1
 LinEq1:  Iter= 35 NonCon=     1 RMS=9.67D-09 Max=1.39D-06 NDo=     1
 LinEq1:  Iter= 36 NonCon=     1 RMS=7.98D-09 Max=1.05D-06 NDo=     1
 LinEq1:  Iter= 37 NonCon=     1 RMS=6.29D-09 Max=1.49D-06 NDo=     1
 LinEq1:  Iter= 38 NonCon=     1 RMS=4.43D-09 Max=7.29D-07 NDo=     1
 LinEq1:  Iter= 39 NonCon=     1 RMS=3.50D-09 Max=5.36D-07 NDo=     1
 LinEq1:  Iter= 40 NonCon=     1 RMS=2.48D-09 Max=2.90D-07 NDo=     1
 LinEq1:  Iter= 41 NonCon=     1 RMS=2.04D-09 Max=2.36D-07 NDo=     1
 LinEq1:  Iter= 42 NonCon=     1 RMS=1.56D-09 Max=2.73D-07 NDo=     1
 LinEq1:  Iter= 43 NonCon=     1 RMS=1.22D-09 Max=1.76D-07 NDo=     1
 LinEq1:  Iter= 44 NonCon=     1 RMS=1.02D-09 Max=1.47D-07 NDo=     1
 LinEq1:  Iter= 45 NonCon=     1 RMS=7.44D-10 Max=8.11D-08 NDo=     1
 LinEq1:  Iter= 46 NonCon=     1 RMS=5.86D-10 Max=8.99D-08 NDo=     1
 LinEq1:  Iter= 47 NonCon=     1 RMS=4.06D-10 Max=7.63D-08 NDo=     1
 LinEq1:  Iter= 48 NonCon=     1 RMS=3.21D-10 Max=6.79D-08 NDo=     1
 LinEq1:  Iter= 49 NonCon=     1 RMS=2.56D-10 Max=5.97D-08 NDo=     1
 LinEq1:  Iter= 50 NonCon=     1 RMS=2.06D-10 Max=4.90D-08 NDo=     1
 LinEq1:  Iter= 51 NonCon=     1 RMS=1.35D-10 Max=2.74D-08 NDo=     1
 LinEq1:  Iter= 52 NonCon=     1 RMS=9.45D-11 Max=1.71D-08 NDo=     1
 LinEq1:  Iter= 53 NonCon=     0 RMS=5.67D-11 Max=7.42D-09 NDo=     1
 Linear equations converged to 1.434D-09 1.434D-08 after    53 iterations.
 SCF Done:  E(UPBE1PBE) =  -3879.06732418     a.u. after   31 cycles
            Convg  =    0.4577D-05                   291 Fock formations.
              S**2 =  9.0386                  -V/T =  2.0034
 <Sx>= 0.0000 <Sy>= 0.0000 <Sz>= 2.5000 <S**2>= 9.0386 S= 2.5477
 <L.S>= 0.000000000000E+00
 Annihilation of the first spin contaminant:
 S**2 before annihilation     9.0386,   after     8.7739

 **********************************************************************

            Population analysis using the SCF density.

 **********************************************************************

 Orbital symmetries:
 Alpha Orbitals:
       Occupied  (A) (A) (A) (A) (A) (A) (A) (A) (A) (A) (A) (A)
                 (A) (A) (A) (A) (A) (A) (A) (A) (A) (A) (A) (A)
                 (A) (A) (A) (A) (A) (A) (A) (A) (A) (A) (A) (A)
                 (A) (A) (A) (A) (A) (A) (A) (A) (A) (A) (A) (A)
                 (A) (A) (A) (A) (A) (A) (A) (A) (A) (A) (A) (A)
                 (A) (A) (A) (A) (A) (A) (A) (A) (A) (A) (A) (A)
                 (A) (A) (A) (A) (A) (A) (A) (A) (A) (A) (A) (A)
                 (A) (A) (A) (A) (A) (A) (A) (A) (A) (A) (A) (A)
                 (A) (A) (A) (A) (A) (A) (A) (A) (A) (A) (A) (A)
                 (A) (A) (A) (A) (A) (A) (A) (A) (A) (A) (A) (A)
                 (A) (A) (A) (A) (A) (A) (A) (A) (A) (A) (A) (A)
                 (A) (A) (A) (A) (A) (A) (A) (A) (A) (A) (A) (A)
                 (A) (A) (A) (A) (A) (A) (A) (A) (A) (A) (A) (A)
                 (A) (A) (A) (A) (A) (A) (A) (A) (A) (A) (A) (A)
                 (A) (A) (A) (A) (A) (A) (A) (A) (A) (A) (A) (A)
                 (A) (A) (A) (A) (A) (A) (A) (A) (A) (A) (A) (A)
                 (A) (A) (A) (A) (A) (A) (A) (A) (A) (A) (A) (A)
                 (A) (A)
       Virtual   (A) (A) (A) (A) (A) (A) (A) (A) (A) (A) (A) (A)
                 (A) (A) (A) (A) (A) (A) (A) (A) (A) (A) (A) (A)
                 (A) (A) (A) (A) (A) (A) (A) (A) (A) (A) (A) (A)
                 (A) (A) (A) (A) (A) (A) (A) (A) (A) (A) (A) (A)
                 (A) (A) (A) (A) (A) (A) (A) (A) (A) (A) (A) (A)
                 (A) (A) (A) (A) (A) (A) (A) (A) (A) (A) (A) (A)
                 (A) (A) (A) (A) (A) (A) (A) (A) (A) (A) (A) (A)
                 (A) (A) (A) (A) (A) (A) (A) (A) (A) (A) (A) (A)
                 (A) (A) (A) (A) (A) (A) (A) (A) (A) (A) (A) (A)
                 (A) (A) (A) (A) (A) (A) (A) (A) (A) (A) (A) (A)
                 (A) (A) (A) (A) (A) (A) (A) (A) (A) (A) (A) (A)
                 (A) (A) (A) (A) (A) (A) (A) (A) (A) (A) (A) (A)
                 (A) (A) (A) (A) (A) (A) (A) (A) (A) (A) (A) (A)
                 (A) (A) (A) (A) (A) (A) (A) (A) (A) (A) (A) (A)
                 (A) (A) (A) (A) (A) (A) (A) (A) (A) (A) (A) (A)
                 (A) (A) (A) (A) (A) (A) (A) (A) (A) (A) (A) (A)
                 (A) (A) (A) (A) (A) (A) (A) (A) (A) (A) (A) (A)
                 (A) (A) (A) (A) (A) (A) (A) (A) (A) (A) (A) (A)
                 (A) (A) (A) (A) (A) (A) (A) (A) (A) (A) (A) (A)
                 (A) (A) (A) (A) (A) (A) (A) (A) (A) (A) (A) (A)
                 (A) (A) (A) (A) (A) (A) (A) (A) (A) (A) (A) (A)
                 (A) (A) (A) (A) (A) (A) (A) (A) (A) (A) (A) (A)
                 (A) (A) (A) (A) (A) (A) (A) (A) (A) (A) (A) (A)
                 (A) (A) (A) (A) (A) (A) (A) (A) (A) (A) (A) (A)
                 (A) (A) (A) (A) (A) (A) (A) (A) (A) (A) (A) (A)
                 (A) (A) (A) (A) (A) (A) (A) (A) (A) (A) (A) (A)
                 (A) (A) (A) (A) (A) (A) (A) (A) (A) (A) (A) (A)
                 (A) (A) (A) (A) (A) (A) (A) (A) (A) (A) (A) (A)
                 (A) (A) (A) (A) (A) (A) (A) (A) (A) (A) (A) (A)
                 (A) (A) (A) (A) (A) (A) (A) (A) (A) (A) (A) (A)
                 (A) (A) (A) (A) (A) (A) (A) (A) (A) (A) (A) (A)
                 (A) (A) (A) (A) (A) (A) (A) (A) (A) (A) (A) (A)
                 (A) (A) (A) (A) (A) (A) (A) (A) (A) (A) (A) (A)
                 (A) (A) (A) (A) (A) (A) (A) (A) (A) (A) (A) (A)
                 (A) (A) (A) (A) (A) (A) (A) (A) (A) (A) (A) (A)
                 (A) (A) (A) (A) (A) (A) (A) (A) (A) (A) (A) (A)
                 (A) (A) (A) (A) (A) (A) (A) (A) (A) (A) (A) (A)
                 (A) (A) (A) (A) (A) (A) (A) (A) (A) (A) (A) (A)
                 (A) (A) (A) (A) (A) (A) (A) (A) (A) (A) (A) (A)
                 (A) (A) (A) (A) (A) (A) (A) (A) (A) (A) (A) (A)
                 (A) (A) (A) (A) (A) (A) (A) (A) (A) (A) (A) (A)
                 (A) (A) (A) (A) (A) (A) (A) (A) (A) (A) (A) (A)
                 (A) (A) (A) (A) (A) (A) (A) (A) (A) (A) (A) (A)
                 (A) (A) (A) (A) (A) (A) (A) (A) (A) (A) (A) (A)
                 (A) (A) (A) (A) (A) (A) (A) (A) (A) (A) (A) (A)
                 (A) (A) (A) (A) (A) (A) (A) (A) (A) (A) (A) (A)
                 (A) (A) (A) (A) (A) (A) (A) (A) (A) (A) (A) (A)
                 (A) (A) (A) (A) (A) (A) (A) (A) (A) (A) (A) (A)
                 (A) (A) (A) (A) (A) (A) (A) (A) (A) (A) (A) (A)
                 (A) (A) (A) (A) (A) (A) (A) (A) (A) (A) (A) (A)
                 (A) (A) (A) (A) (A) (A) (A) (A) (A) (A) (A) (A)
                 (A) (A) (A) (A) (A) (A) (A) (A) (A) (A) (A) (A)
                 (A) (A) (A) (A) (A) (A) (A) (A) (A) (A) (A) (A)
                 (A) (A) (A) (A) (A) (A) (A) (A) (A) (A) (A) (A)
                 (A) (A) (A) (A) (A) (A) (A) (A) (A) (A) (A) (A)
                 (A) (A) (A) (A) (A) (A) (A) (A) (A) (A) (A) (A)
                 (A) (A) (A) (A) (A) (A) (A) (A) (A) (A) (A) (A)
                 (A) (A) (A) (A) (A) (A) (A) (A) (A) (A) (A) (A)
                 (A) (A) (A) (A) (A) (A) (A) (A) (A) (A) (A) (A)
                 (A) (A) (A) (A) (A) (A) (A) (A) (A) (A) (A) (A)
                 (A) (A) (A) (A) (A) (A) (A) (A) (A) (A) (A) (A)
                 (A) (A) (A) (A) (A) (A) (A) (A) (A) (A) (A) (A)
                 (A) (A) (A) (A) (A) (A) (A) (A) (A) (A) (A) (A)
                 (A) (A) (A) (A) (A) (A) (A) (A) (A) (A) (A) (A)
                 (A) (A) (A) (A) (A) (A) (A) (A) (A) (A) (A) (A)
                 (A) (A) (A) (A) (A) (A) (A) (A) (A) (A) (A) (A)
                 (A) (A) (A) (A) (A) (A) (A) (A) (A) (A) (A) (A)
                 (A) (A) (A) (A) (A) (A) (A) (A) (A) (A) (A) (A)
                 (A) (A) (A) (A) (A) (A) (A) (A) (A) (A) (A) (A)
                 (A) (A) (A) (A) (A) (A) (A) (A) (A) (A) (A) (A)
                 (A) (A) (A) (A) (A) (A) (A) (A) (A) (A) (A) (A)
                 (A) (A) (A) (A) (A) (A) (A) (A) (A) (A) (A) (A)
                 (A) (A) (A) (A) (A) (A) (A) (A) (A) (A) (A) (A)
                 (A) (A) (A) (A) (A) (A) (A) (A) (A) (A) (A) (A)
                 (A) (A) (A) (A) (A) (A) (A) (A) (A) (A) (A) (A)
                 (A) (A) (A) (A) (A) (A) (A) (A) (A) (A) (A) (A)
                 (A) (A) (A) (A) (A) (A) (A) (A) (A) (A) (A) (A)
                 (A) (A) (A) (A) (A) (A) (A) (A) (A) (A) (A) (A)
                 (A) (A) (A) (A) (A) (A) (A) (A) (A) (A) (A) (A)
                 (A) (A) (A) (A) (A) (A) (A) (A) (A) (A) (A) (A)
                 (A) (A) (A) (A) (A) (A) (A) (A) (A) (A) (A) (A)
                 (A) (A) (A) (A) (A) (A) (A) (A) (A) (A) (A) (A)
                 (A) (A) (A) (A) (A) (A) (A) (A) (A) (A) (A) (A)
                 (A) (A) (A) (A) (A) (A) (A) (A) (A) (A) (A) (A)
                 (A) (A) (A) (A) (A) (A) (A) (A) (A) (A) (A) (A)
                 (A) (A) (A) (A) (A) (A) (A) (A) (A) (A) (A) (A)
                 (A) (A) (A) (A) (A) (A) (A) (A) (A) (A) (A) (A)
                 (A) (A) (A) (A) (A) (A) (A) (A) (A) (A) (A) (A)
                 (A) (A) (A) (A) (A) (A) (A) (A) (A) (A) (A) (A)
                 (A) (A) (A) (A) (A) (A) (A) (A) (A) (A) (A) (A)
                 (A) (A) (A) (A) (A) (A) (A) (A) (A) (A) (A) (A)
                 (A) (A) (A) (A) (A) (A) (A) (A) (A) (A) (A) (A)
                 (A) (A) (A) (A) (A) (A) (A) (A) (A) (A) (A) (A)
                 (A) (A) (A) (A) (A) (A) (A) (A) (A) (A) (A) (A)
                 (A) (A) (A) (A) (A) (A) (A) (A) (A) (A) (A) (A)
                 (A) (A) (A) (A) (A) (A) (A) (A) (A) (A) (A) (A)
                 (A) (A) (A) (A) (A) (A) (A) (A) (A) (A) (A) (A)
                 (A) (A) (A) (A) (A) (A) (A) (A) (A) (A) (A) (A)
                 (A) (A) (A) (A) (A) (A) (A) (A) (A) (A) (A) (A)
                 (A) (A) (A) (A) (A) (A) (A) (A) (A) (A) (A) (A)
                 (A) (A) (A) (A) (A) (A) (A) (A) (A) (A) (A) (A)
                 (A) (A) (A) (A) (A) (A) (A) (A) (A) (A) (A) (A)
                 (A) (A) (A) (A) (A) (A) (A) (A) (A) (A) (A) (A)
                 (A) (A) (A) (A) (A) (A) (A) (A) (A) (A) (A) (A)
                 (A) (A) (A) (A) (A) (A) (A) (A) (A) (A) (A) (A)
                 (A) (A) (A) (A) (A) (A) (A) (A) (A) (A) (A) (A)
                 (A) (A) (A) (A) (A) (A) (A) (A) (A) (A) (A) (A)
                 (A) (A) (A) (A) (A) (A) (A) (A) (A) (A) (A) (A)
                 (A) (A) (A) (A) (A) (A) (A) (A) (A) (A) (A) (A)
                 (A) (A) (A) (A) (A) (A) (A) (A) (A) (A) (A) (A)
                 (A) (A) (A) (A) (A) (A) (A) (A) (A) (A) (A) (A)
                 (A) (A) (A) (A) (A) (A) (A) (A) (A) (A) (A) (A)
                 (A) (A) (A) (A) (A) (A) (A) (A) (A) (A) (A) (A)
                 (A) (A) (A) (A) (A) (A) (A) (A) (A) (A) (A) (A)
                 (A) (A) (A) (A) (A) (A) (A) (A) (A) (A) (A) (A)
                 (A) (A) (A) (A) (A) (A) (A) (A) (A) (A) (A) (A)
                 (A) (A) (A) (A) (A) (A) (A) (A) (A) (A) (A) (A)
                 (A) (A) (A) (A) (A) (A) (A) (A) (A) (A) (A) (A)
                 (A) (A) (A) (A) (A) (A) (A) (A) (A) (A) (A) (A)
                 (A) (A) (A) (A) (A) (A) (A) (A) (A) (A) (A) (A)
                 (A) (A) (A) (A) (A) (A) (A) (A) (A) (A) (A) (A)
                 (A) (A) (A) (A) (A) (A) (A) (A) (A) (A) (A) (A)
                 (A) (A) (A) (A) (A) (A) (A) (A) (A) (A) (A) (A)
                 (A) (A) (A) (A) (A) (A) (A) (A) (A) (A) (A) (A)
                 (A) (A) (A) (A) (A) (A) (A) (A) (A) (A) (A) (A)
                 (A) (A) (A) (A) (A) (A) (A) (A) (A) (A) (A) (A)
                 (A) (A) (A) (A) (A) (A) (A) (A) (A) (A) (A) (A)
                 (A) (A) (A) (A) (A) (A) (A) (A) (A) (A) (A) (A)
                 (A) (A) (A) (A) (A) (A) (A) (A) (A) (A) (A) (A)
                 (A) (A) (A) (A) (A) (A) (A) (A) (A) (A) (A) (A)
                 (A) (A) (A) (A) (A) (A) (A) (A) (A) (A) (A) (A)
                 (A) (A) (A) (A) (A) (A) (A) (A) (A) (A) (A) (A)
                 (A) (A) (A) (A) (A) (A) (A) (A) (A) (A) (A) (A)
                 (A) (A) (A) (A) (A) (A) (A) (A) (A) (A) (A) (A)
                 (A) (A) (A) (A) (A) (A) (A) (A) (A) (A) (A) (A)
                 (A) (A) (A) (A) (A) (A) (A) (A) (A) (A) (A) (A)
                 (A) (A) (A) (A) (A) (A) (A) (A) (A) (A) (A) (A)
                 (A) (A) (A) (A) (A) (A) (A) (A) (A) (A) (A) (A)
                 (A) (A) (A) (A) (A) (A) (A) (A) (A) (A) (A) (A)
                 (A) (A) (A) (A) (A) (A) (A) (A) (A) (A) (A) (A)
                 (A) (A) (A) (A) (A) (A) (A) (A) (A) (A) (A) (A)
                 (A) (A) (A) (A) (A) (A) (A) (A) (A) (A) (A) (A)
                 (A) (A) (A) (A) (A) (A) (A) (A) (A) (A) (A) (A)
                 (A) (A) (A) (A) (A) (A) (A) (A) (A) (A) (A) (A)
                 (A) (A) (A) (A) (A)
 Beta  Orbitals:
       Occupied  (A) (A) (A) (A) (A) (A) (A) (A) (A) (A) (A) (A)
                 (A) (A) (A) (A) (A) (A) (A) (A) (A) (A) (A) (A)
                 (A) (A) (A) (A) (A) (A) (A) (A) (A) (A) (A) (A)
                 (A) (A) (A) (A) (A) (A) (A) (A) (A) (A) (A) (A)
                 (A) (A) (A) (A) (A) (A) (A) (A) (A) (A) (A) (A)
                 (A) (A) (A) (A) (A) (A) (A) (A) (A) (A) (A) (A)
                 (A) (A) (A) (A) (A) (A) (A) (A) (A) (A) (A) (A)
                 (A) (A) (A) (A) (A) (A) (A) (A) (A) (A) (A) (A)
                 (A) (A) (A) (A) (A) (A) (A) (A) (A) (A) (A) (A)
                 (A) (A) (A) (A) (A) (A) (A) (A) (A) (A) (A) (A)
                 (A) (A) (A) (A) (A) (A) (A) (A) (A) (A) (A) (A)
                 (A) (A) (A) (A) (A) (A) (A) (A) (A) (A) (A) (A)
                 (A) (A) (A) (A) (A) (A) (A) (A) (A) (A) (A) (A)
                 (A) (A) (A) (A) (A) (A) (A) (A) (A) (A) (A) (A)
                 (A) (A) (A) (A) (A) (A) (A) (A) (A) (A) (A) (A)
                 (A) (A) (A) (A) (A) (A) (A) (A) (A) (A) (A) (A)
                 (A) (A) (A) (A) (A) (A) (A) (A) (A)
       Virtual   (A) (A) (A) (A) (A) (A) (A) (A) (A) (A) (A) (A)
                 (A) (A) (A) (A) (A) (A) (A) (A) (A) (A) (A) (A)
                 (A) (A) (A) (A) (A) (A) (A) (A) (A) (A) (A) (A)
                 (A) (A) (A) (A) (A) (A) (A) (A) (A) (A) (A) (A)
                 (A) (A) (A) (A) (A) (A) (A) (A) (A) (A) (A) (A)
                 (A) (A) (A) (A) (A) (A) (A) (A) (A) (A) (A) (A)
                 (A) (A) (A) (A) (A) (A) (A) (A) (A) (A) (A) (A)
                 (A) (A) (A) (A) (A) (A) (A) (A) (A) (A) (A) (A)
                 (A) (A) (A) (A) (A) (A) (A) (A) (A) (A) (A) (A)
                 (A) (A) (A) (A) (A) (A) (A) (A) (A) (A) (A) (A)
                 (A) (A) (A) (A) (A) (A) (A) (A) (A) (A) (A) (A)
                 (A) (A) (A) (A) (A) (A) (A) (A) (A) (A) (A) (A)
                 (A) (A) (A) (A) (A) (A) (A) (A) (A) (A) (A) (A)
                 (A) (A) (A) (A) (A) (A) (A) (A) (A) (A) (A) (A)
                 (A) (A) (A) (A) (A) (A) (A) (A) (A) (A) (A) (A)
                 (A) (A) (A) (A) (A) (A) (A) (A) (A) (A) (A) (A)
                 (A) (A) (A) (A) (A) (A) (A) (A) (A) (A) (A) (A)
                 (A) (A) (A) (A) (A) (A) (A) (A) (A) (A) (A) (A)
                 (A) (A) (A) (A) (A) (A) (A) (A) (A) (A) (A) (A)
                 (A) (A) (A) (A) (A) (A) (A) (A) (A) (A) (A) (A)
                 (A) (A) (A) (A) (A) (A) (A) (A) (A) (A) (A) (A)
                 (A) (A) (A) (A) (A) (A) (A) (A) (A) (A) (A) (A)
                 (A) (A) (A) (A) (A) (A) (A) (A) (A) (A) (A) (A)
                 (A) (A) (A) (A) (A) (A) (A) (A) (A) (A) (A) (A)
                 (A) (A) (A) (A) (A) (A) (A) (A) (A) (A) (A) (A)
                 (A) (A) (A) (A) (A) (A) (A) (A) (A) (A) (A) (A)
                 (A) (A) (A) (A) (A) (A) (A) (A) (A) (A) (A) (A)
                 (A) (A) (A) (A) (A) (A) (A) (A) (A) (A) (A) (A)
                 (A) (A) (A) (A) (A) (A) (A) (A) (A) (A) (A) (A)
                 (A) (A) (A) (A) (A) (A) (A) (A) (A) (A) (A) (A)
                 (A) (A) (A) (A) (A) (A) (A) (A) (A) (A) (A) (A)
                 (A) (A) (A) (A) (A) (A) (A) (A) (A) (A) (A) (A)
                 (A) (A) (A) (A) (A) (A) (A) (A) (A) (A) (A) (A)
                 (A) (A) (A) (A) (A) (A) (A) (A) (A) (A) (A) (A)
                 (A) (A) (A) (A) (A) (A) (A) (A) (A) (A) (A) (A)
                 (A) (A) (A) (A) (A) (A) (A) (A) (A) (A) (A) (A)
                 (A) (A) (A) (A) (A) (A) (A) (A) (A) (A) (A) (A)
                 (A) (A) (A) (A) (A) (A) (A) (A) (A) (A) (A) (A)
                 (A) (A) (A) (A) (A) (A) (A) (A) (A) (A) (A) (A)
                 (A) (A) (A) (A) (A) (A) (A) (A) (A) (A) (A) (A)
                 (A) (A) (A) (A) (A) (A) (A) (A) (A) (A) (A) (A)
                 (A) (A) (A) (A) (A) (A) (A) (A) (A) (A) (A) (A)
                 (A) (A) (A) (A) (A) (A) (A) (A) (A) (A) (A) (A)
                 (A) (A) (A) (A) (A) (A) (A) (A) (A) (A) (A) (A)
                 (A) (A) (A) (A) (A) (A) (A) (A) (A) (A) (A) (A)
                 (A) (A) (A) (A) (A) (A) (A) (A) (A) (A) (A) (A)
                 (A) (A) (A) (A) (A) (A) (A) (A) (A) (A) (A) (A)
                 (A) (A) (A) (A) (A) (A) (A) (A) (A) (A) (A) (A)
                 (A) (A) (A) (A) (A) (A) (A) (A) (A) (A) (A) (A)
                 (A) (A) (A) (A) (A) (A) (A) (A) (A) (A) (A) (A)
                 (A) (A) (A) (A) (A) (A) (A) (A) (A) (A) (A) (A)
                 (A) (A) (A) (A) (A) (A) (A) (A) (A) (A) (A) (A)
                 (A) (A) (A) (A) (A) (A) (A) (A) (A) (A) (A) (A)
                 (A) (A) (A) (A) (A) (A) (A) (A) (A) (A) (A) (A)
                 (A) (A) (A) (A) (A) (A) (A) (A) (A) (A) (A) (A)
                 (A) (A) (A) (A) (A) (A) (A) (A) (A) (A) (A) (A)
                 (A) (A) (A) (A) (A) (A) (A) (A) (A) (A) (A) (A)
                 (A) (A) (A) (A) (A) (A) (A) (A) (A) (A) (A) (A)
                 (A) (A) (A) (A) (A) (A) (A) (A) (A) (A) (A) (A)
                 (A) (A) (A) (A) (A) (A) (A) (A) (A) (A) (A) (A)
                 (A) (A) (A) (A) (A) (A) (A) (A) (A) (A) (A) (A)
                 (A) (A) (A) (A) (A) (A) (A) (A) (A) (A) (A) (A)
                 (A) (A) (A) (A) (A) (A) (A) (A) (A) (A) (A) (A)
                 (A) (A) (A) (A) (A) (A) (A) (A) (A) (A) (A) (A)
                 (A) (A) (A) (A) (A) (A) (A) (A) (A) (A) (A) (A)
                 (A) (A) (A) (A) (A) (A) (A) (A) (A) (A) (A) (A)
                 (A) (A) (A) (A) (A) (A) (A) (A) (A) (A) (A) (A)
                 (A) (A) (A) (A) (A) (A) (A) (A) (A) (A) (A) (A)
                 (A) (A) (A) (A) (A) (A) (A) (A) (A) (A) (A) (A)
                 (A) (A) (A) (A) (A) (A) (A) (A) (A) (A) (A) (A)
                 (A) (A) (A) (A) (A) (A) (A) (A) (A) (A) (A) (A)
                 (A) (A) (A) (A) (A) (A) (A) (A) (A) (A) (A) (A)
                 (A) (A) (A) (A) (A) (A) (A) (A) (A) (A) (A) (A)
                 (A) (A) (A) (A) (A) (A) (A) (A) (A) (A) (A) (A)
                 (A) (A) (A) (A) (A) (A) (A) (A) (A) (A) (A) (A)
                 (A) (A) (A) (A) (A) (A) (A) (A) (A) (A) (A) (A)
                 (A) (A) (A) (A) (A) (A) (A) (A) (A) (A) (A) (A)
                 (A) (A) (A) (A) (A) (A) (A) (A) (A) (A) (A) (A)
                 (A) (A) (A) (A) (A) (A) (A) (A) (A) (A) (A) (A)
                 (A) (A) (A) (A) (A) (A) (A) (A) (A) (A) (A) (A)
                 (A) (A) (A) (A) (A) (A) (A) (A) (A) (A) (A) (A)
                 (A) (A) (A) (A) (A) (A) (A) (A) (A) (A) (A) (A)
                 (A) (A) (A) (A) (A) (A) (A) (A) (A) (A) (A) (A)
                 (A) (A) (A) (A) (A) (A) (A) (A) (A) (A) (A) (A)
                 (A) (A) (A) (A) (A) (A) (A) (A) (A) (A) (A) (A)
                 (A) (A) (A) (A) (A) (A) (A) (A) (A) (A) (A) (A)
                 (A) (A) (A) (A) (A) (A) (A) (A) (A) (A) (A) (A)
                 (A) (A) (A) (A) (A) (A) (A) (A) (A) (A) (A) (A)
                 (A) (A) (A) (A) (A) (A) (A) (A) (A) (A) (A) (A)
                 (A) (A) (A) (A) (A) (A) (A) (A) (A) (A) (A) (A)
                 (A) (A) (A) (A) (A) (A) (A) (A) (A) (A) (A) (A)
                 (A) (A) (A) (A) (A) (A) (A) (A) (A) (A) (A) (A)
                 (A) (A) (A) (A) (A) (A) (A) (A) (A) (A) (A) (A)
                 (A) (A) (A) (A) (A) (A) (A) (A) (A) (A) (A) (A)
                 (A) (A) (A) (A) (A) (A) (A) (A) (A) (A) (A) (A)
                 (A) (A) (A) (A) (A) (A) (A) (A) (A) (A) (A) (A)
                 (A) (A) (A) (A) (A) (A) (A) (A) (A) (A) (A) (A)
                 (A) (A) (A) (A) (A) (A) (A) (A) (A) (A) (A) (A)
                 (A) (A) (A) (A) (A) (A) (A) (A) (A) (A) (A) (A)
                 (A) (A) (A) (A) (A) (A) (A) (A) (A) (A) (A) (A)
                 (A) (A) (A) (A) (A) (A) (A) (A) (A) (A) (A) (A)
                 (A) (A) (A) (A) (A) (A) (A) (A) (A) (A) (A) (A)
                 (A) (A) (A) (A) (A) (A) (A) (A) (A) (A) (A) (A)
                 (A) (A) (A) (A) (A) (A) (A) (A) (A) (A) (A) (A)
                 (A) (A) (A) (A) (A) (A) (A) (A) (A) (A) (A) (A)
                 (A) (A) (A) (A) (A) (A) (A) (A) (A) (A) (A) (A)
                 (A) (A) (A) (A) (A) (A) (A) (A) (A) (A) (A) (A)
                 (A) (A) (A) (A) (A) (A) (A) (A) (A) (A) (A) (A)
                 (A) (A) (A) (A) (A) (A) (A) (A) (A) (A) (A) (A)
                 (A) (A) (A) (A) (A) (A) (A) (A) (A) (A) (A) (A)
                 (A) (A) (A) (A) (A) (A) (A) (A) (A) (A) (A) (A)
                 (A) (A) (A) (A) (A) (A) (A) (A) (A) (A) (A) (A)
                 (A) (A) (A) (A) (A) (A) (A) (A) (A) (A) (A) (A)
                 (A) (A) (A) (A) (A) (A) (A) (A) (A) (A) (A) (A)
                 (A) (A) (A) (A) (A) (A) (A) (A) (A) (A) (A) (A)
                 (A) (A) (A) (A) (A) (A) (A) (A) (A) (A) (A) (A)
                 (A) (A) (A) (A) (A) (A) (A) (A) (A) (A) (A) (A)
                 (A) (A) (A) (A) (A) (A) (A) (A) (A) (A) (A) (A)
                 (A) (A) (A) (A) (A) (A) (A) (A) (A) (A) (A) (A)
                 (A) (A) (A) (A) (A) (A) (A) (A) (A) (A) (A) (A)
                 (A) (A) (A) (A) (A) (A) (A) (A) (A) (A) (A) (A)
                 (A) (A) (A) (A) (A) (A) (A) (A) (A) (A) (A) (A)
                 (A) (A) (A) (A) (A) (A) (A) (A) (A) (A) (A) (A)
                 (A) (A) (A) (A) (A) (A) (A) (A) (A) (A) (A) (A)
                 (A) (A) (A) (A) (A) (A) (A) (A) (A) (A) (A) (A)
                 (A) (A) (A) (A) (A) (A) (A) (A) (A) (A) (A) (A)
                 (A) (A) (A) (A) (A) (A) (A) (A) (A) (A) (A) (A)
                 (A) (A) (A) (A) (A) (A) (A) (A) (A) (A) (A) (A)
                 (A) (A) (A) (A) (A) (A) (A) (A) (A) (A) (A) (A)
                 (A) (A) (A) (A) (A) (A) (A) (A) (A) (A) (A) (A)
                 (A) (A) (A) (A) (A) (A) (A) (A) (A) (A) (A) (A)
                 (A) (A) (A) (A) (A) (A) (A) (A) (A) (A) (A) (A)
                 (A) (A) (A) (A) (A) (A) (A) (A) (A) (A) (A) (A)
                 (A) (A) (A) (A) (A) (A) (A) (A) (A) (A) (A) (A)
                 (A) (A) (A) (A) (A) (A) (A) (A) (A) (A) (A) (A)
                 (A) (A) (A) (A) (A) (A) (A) (A) (A) (A) (A) (A)
                 (A) (A) (A) (A) (A) (A) (A) (A) (A) (A) (A) (A)
                 (A) (A) (A) (A) (A) (A) (A) (A) (A) (A) (A) (A)
                 (A) (A) (A) (A) (A) (A) (A) (A) (A) (A) (A) (A)
                 (A) (A) (A) (A) (A) (A) (A) (A) (A) (A) (A) (A)
                 (A) (A) (A) (A) (A) (A) (A) (A) (A) (A) (A) (A)
                 (A) (A) (A) (A) (A) (A) (A) (A) (A) (A) (A) (A)
                 (A) (A) (A) (A) (A) (A) (A) (A) (A) (A) (A) (A)
                 (A) (A) (A) (A) (A) (A) (A) (A) (A) (A) (A) (A)
                 (A) (A) (A) (A) (A) (A) (A) (A) (A) (A)
 The electronic state is 6-A.
 Alpha  occ. eigenvalues -- -256.51590 -89.15659 -30.30161 -26.13160 -26.12775
 Alpha  occ. eigenvalues --  -26.11509 -19.33727 -19.32982 -19.26520 -19.23523
 Alpha  occ. eigenvalues --  -14.55562 -14.51444 -14.50506 -14.50344 -14.49970
 Alpha  occ. eigenvalues --  -14.49960 -10.43490 -10.41367 -10.39351 -10.37351
 Alpha  occ. eigenvalues --  -10.36738 -10.36464 -10.36365 -10.36165 -10.35921
 Alpha  occ. eigenvalues --  -10.35710 -10.35237 -10.35206 -10.35059 -10.34420
 Alpha  occ. eigenvalues --  -10.34107 -10.34066 -10.34033 -10.33703 -10.33472
 Alpha  occ. eigenvalues --  -10.33382 -10.33376 -10.33331 -10.32958 -10.32831
 Alpha  occ. eigenvalues --  -10.32696 -10.32558 -10.32428 -10.32061 -10.32010
 Alpha  occ. eigenvalues --  -10.31956 -10.31884 -10.31586 -10.31304 -10.31198
 Alpha  occ. eigenvalues --  -10.30990 -10.30907 -10.30403 -10.30402 -10.30281
 Alpha  occ. eigenvalues --  -10.30255 -10.30089  -8.13387  -6.06992  -6.06721
 Alpha  occ. eigenvalues --   -6.06286  -3.65850  -2.42863  -2.41848  -2.39369
 Alpha  occ. eigenvalues --   -1.25650  -1.22681  -1.17743  -1.11053  -1.08883
 Alpha  occ. eigenvalues --   -1.08300  -1.07873  -1.07530  -1.06529  -1.02191
 Alpha  occ. eigenvalues --   -0.95991  -0.94495  -0.93326  -0.93069  -0.92315
 Alpha  occ. eigenvalues --   -0.91819  -0.91779  -0.91662  -0.91264  -0.88543
 Alpha  occ. eigenvalues --   -0.87827  -0.87615  -0.87097  -0.86472  -0.85468
 Alpha  occ. eigenvalues --   -0.83435  -0.82861  -0.82198  -0.81123  -0.81062
 Alpha  occ. eigenvalues --   -0.79472  -0.79182  -0.78985  -0.77117  -0.76235
 Alpha  occ. eigenvalues --   -0.75785  -0.75702  -0.74467  -0.73532  -0.73184
 Alpha  occ. eigenvalues --   -0.73023  -0.71661  -0.71493  -0.69456  -0.68889
 Alpha  occ. eigenvalues --   -0.67483  -0.65866  -0.65051  -0.64563  -0.63774
 Alpha  occ. eigenvalues --   -0.62619  -0.62368  -0.62212  -0.61409  -0.60420
 Alpha  occ. eigenvalues --   -0.59976  -0.59816  -0.59003  -0.58934  -0.58839
 Alpha  occ. eigenvalues --   -0.58788  -0.58445  -0.58331  -0.57420  -0.56711
 Alpha  occ. eigenvalues --   -0.56665  -0.56388  -0.55996  -0.55696  -0.55123
 Alpha  occ. eigenvalues --   -0.54551  -0.54518  -0.54098  -0.54085  -0.53901
 Alpha  occ. eigenvalues --   -0.53744  -0.53444  -0.53298  -0.53198  -0.52998
 Alpha  occ. eigenvalues --   -0.52779  -0.52740  -0.52471  -0.52192  -0.52011
 Alpha  occ. eigenvalues --   -0.51892  -0.51819  -0.51594  -0.51392  -0.51286
 Alpha  occ. eigenvalues --   -0.50964  -0.50790  -0.50621  -0.50535  -0.50008
 Alpha  occ. eigenvalues --   -0.49906  -0.49512  -0.49020  -0.48931  -0.48566
 Alpha  occ. eigenvalues --   -0.48507  -0.48000  -0.47885  -0.47467  -0.47252
 Alpha  occ. eigenvalues --   -0.46885  -0.46695  -0.46617  -0.46232  -0.46164
 Alpha  occ. eigenvalues --   -0.45868  -0.45309  -0.45040  -0.44872  -0.44434
 Alpha  occ. eigenvalues --   -0.43799  -0.43296  -0.42856  -0.42750  -0.42536
 Alpha  occ. eigenvalues --   -0.42393  -0.41519  -0.41410  -0.40549  -0.40023
 Alpha  occ. eigenvalues --   -0.39660  -0.38327  -0.38218  -0.37533  -0.36313
 Alpha  occ. eigenvalues --   -0.36286  -0.35253  -0.34910  -0.34371  -0.33280
 Alpha  occ. eigenvalues --   -0.33209  -0.32518  -0.31531  -0.30495  -0.27094
 Alpha  occ. eigenvalues --   -0.23306
 Alpha virt. eigenvalues --   -0.18387  -0.17790  -0.14835  -0.13959  -0.11188
 Alpha virt. eigenvalues --   -0.10429  -0.08557  -0.08079  -0.07459  -0.06747
 Alpha virt. eigenvalues --   -0.06263  -0.05921  -0.05661  -0.04737  -0.04573
 Alpha virt. eigenvalues --   -0.04146  -0.04027  -0.03820  -0.03476  -0.02862
 Alpha virt. eigenvalues --   -0.02639  -0.02457  -0.02074  -0.01642  -0.01344
 Alpha virt. eigenvalues --   -0.01022  -0.00929  -0.00571  -0.00412  -0.00089
 Alpha virt. eigenvalues --   -0.00071   0.00440   0.00648   0.00939   0.01122
 Alpha virt. eigenvalues --    0.01446   0.01574   0.02016   0.02360   0.02717
 Alpha virt. eigenvalues --    0.02748   0.02994   0.03194   0.03366   0.03670
 Alpha virt. eigenvalues --    0.03985   0.04075   0.04164   0.04380   0.04816
 Alpha virt. eigenvalues --    0.05216   0.05297   0.05345   0.05440   0.05654
 Alpha virt. eigenvalues --    0.05738   0.05890   0.06085   0.06174   0.06412
 Alpha virt. eigenvalues --    0.06497   0.06695   0.06856   0.06911   0.07158
 Alpha virt. eigenvalues --    0.07592   0.07817   0.08023   0.08139   0.08343
 Alpha virt. eigenvalues --    0.08771   0.08864   0.09066   0.09326   0.09426
 Alpha virt. eigenvalues --    0.09559   0.09886   0.10001   0.10483   0.10652
 Alpha virt. eigenvalues --    0.10766   0.11082   0.11272   0.11504   0.11624
 Alpha virt. eigenvalues --    0.11689   0.11865   0.12318   0.12454   0.12600
 Alpha virt. eigenvalues --    0.12610   0.12731   0.12939   0.13170   0.13234
 Alpha virt. eigenvalues --    0.13481   0.13694   0.13922   0.14009   0.14148
 Alpha virt. eigenvalues --    0.14460   0.14868   0.14978   0.15022   0.15265
 Alpha virt. eigenvalues --    0.15537   0.15655   0.15782   0.16064   0.16418
 Alpha virt. eigenvalues --    0.16509   0.16608   0.16945   0.17304   0.17491
 Alpha virt. eigenvalues --    0.17631   0.17756   0.18019   0.18235   0.18371
 Alpha virt. eigenvalues --    0.18690   0.19000   0.19076   0.19403   0.19616
 Alpha virt. eigenvalues --    0.19668   0.20037   0.20182   0.20427   0.20552
 Alpha virt. eigenvalues --    0.20732   0.20893   0.21094   0.21269   0.21460
 Alpha virt. eigenvalues --    0.21624   0.21925   0.22302   0.22314   0.22997
 Alpha virt. eigenvalues --    0.23039   0.23251   0.23380   0.23657   0.23952
 Alpha virt. eigenvalues --    0.24087   0.24399   0.24744   0.24850   0.24995
 Alpha virt. eigenvalues --    0.25159   0.25553   0.25695   0.26041   0.26401
 Alpha virt. eigenvalues --    0.26541   0.26716   0.26879   0.27178   0.27269
 Alpha virt. eigenvalues --    0.27321   0.27639   0.27875   0.28064   0.28517
 Alpha virt. eigenvalues --    0.28650   0.28947   0.29029   0.29318   0.29613
 Alpha virt. eigenvalues --    0.29713   0.30091   0.30274   0.30327   0.30511
 Alpha virt. eigenvalues --    0.30767   0.30974   0.31099   0.31259   0.31498
 Alpha virt. eigenvalues --    0.31647   0.31767   0.32034   0.32105   0.32342
 Alpha virt. eigenvalues --    0.32484   0.32609   0.32852   0.33080   0.33201
 Alpha virt. eigenvalues --    0.33461   0.33643   0.33748   0.34092   0.34246
 Alpha virt. eigenvalues --    0.34465   0.34570   0.34885   0.35041   0.35137
 Alpha virt. eigenvalues --    0.35321   0.35583   0.35647   0.35820   0.35868
 Alpha virt. eigenvalues --    0.36227   0.36399   0.36493   0.36846   0.37037
 Alpha virt. eigenvalues --    0.37189   0.37275   0.37349   0.37698   0.37724
 Alpha virt. eigenvalues --    0.37790   0.37999   0.38238   0.38269   0.38693
 Alpha virt. eigenvalues --    0.38895   0.38961   0.39213   0.39312   0.39668
 Alpha virt. eigenvalues --    0.39675   0.39724   0.39918   0.40133   0.40225
 Alpha virt. eigenvalues --    0.40349   0.40500   0.40556   0.40672   0.40883
 Alpha virt. eigenvalues --    0.41018   0.41270   0.41404   0.41610   0.41881
 Alpha virt. eigenvalues --    0.41996   0.42276   0.42499   0.42572   0.42945
 Alpha virt. eigenvalues --    0.43044   0.43174   0.43393   0.43631   0.43735
 Alpha virt. eigenvalues --    0.43912   0.44130   0.44343   0.44568   0.44805
 Alpha virt. eigenvalues --    0.44985   0.45136   0.45368   0.45553   0.45763
 Alpha virt. eigenvalues --    0.45857   0.46041   0.46281   0.46609   0.46717
 Alpha virt. eigenvalues --    0.46849   0.46978   0.47066   0.47343   0.47570
 Alpha virt. eigenvalues --    0.47699   0.48022   0.48227   0.48528   0.48635
 Alpha virt. eigenvalues --    0.48739   0.48853   0.49142   0.49278   0.49458
 Alpha virt. eigenvalues --    0.49714   0.50025   0.50205   0.50406   0.50554
 Alpha virt. eigenvalues --    0.50834   0.51019   0.51339   0.51615   0.51757
 Alpha virt. eigenvalues --    0.51882   0.51956   0.52544   0.52832   0.53140
 Alpha virt. eigenvalues --    0.53296   0.53639   0.53775   0.54066   0.54308
 Alpha virt. eigenvalues --    0.54500   0.54930   0.55148   0.55601   0.55682
 Alpha virt. eigenvalues --    0.55994   0.56407   0.56614   0.56711   0.56903
 Alpha virt. eigenvalues --    0.57288   0.57582   0.58176   0.58245   0.58837
 Alpha virt. eigenvalues --    0.58872   0.59186   0.59352   0.59673   0.59902
 Alpha virt. eigenvalues --    0.60049   0.60653   0.60789   0.60821   0.61090
 Alpha virt. eigenvalues --    0.61277   0.61440   0.61630   0.62272   0.62542
 Alpha virt. eigenvalues --    0.62592   0.62988   0.63153   0.63382   0.63525
 Alpha virt. eigenvalues --    0.63738   0.63937   0.64263   0.64510   0.64712
 Alpha virt. eigenvalues --    0.64828   0.64967   0.65654   0.65754   0.66397
 Alpha virt. eigenvalues --    0.66511   0.66639   0.66906   0.67103   0.67514
 Alpha virt. eigenvalues --    0.67846   0.67949   0.68690   0.68795   0.69368
 Alpha virt. eigenvalues --    0.69443   0.69483   0.70126   0.70594   0.70880
 Alpha virt. eigenvalues --    0.71031   0.71242   0.71765   0.72090   0.72356
 Alpha virt. eigenvalues --    0.72582   0.73010   0.73469   0.73629   0.74013
 Alpha virt. eigenvalues --    0.74247   0.74400   0.74563   0.74844   0.74999
 Alpha virt. eigenvalues --    0.75634   0.75895   0.76193   0.76527   0.76812
 Alpha virt. eigenvalues --    0.76915   0.77164   0.77391   0.77806   0.78227
 Alpha virt. eigenvalues --    0.78316   0.78693   0.79035   0.79302   0.79655
 Alpha virt. eigenvalues --    0.79802   0.80080   0.80272   0.80705   0.81083
 Alpha virt. eigenvalues --    0.81236   0.81554   0.82074   0.82168   0.82441
 Alpha virt. eigenvalues --    0.82550   0.82963   0.83116   0.83484   0.83746
 Alpha virt. eigenvalues --    0.83795   0.83889   0.84202   0.84582   0.84856
 Alpha virt. eigenvalues --    0.85096   0.85185   0.85722   0.85970   0.86166
 Alpha virt. eigenvalues --    0.86363   0.86531   0.86846   0.87024   0.87419
 Alpha virt. eigenvalues --    0.87572   0.88051   0.88298   0.88386   0.88677
 Alpha virt. eigenvalues --    0.89073   0.89239   0.89378   0.89633   0.89905
 Alpha virt. eigenvalues --    0.90106   0.90401   0.90435   0.91028   0.91104
 Alpha virt. eigenvalues --    0.91660   0.91861   0.92164   0.92272   0.92527
 Alpha virt. eigenvalues --    0.92765   0.93156   0.93191   0.93782   0.93941
 Alpha virt. eigenvalues --    0.94075   0.94392   0.94702   0.94817   0.95018
 Alpha virt. eigenvalues --    0.95356   0.96059   0.96169   0.96375   0.96463
 Alpha virt. eigenvalues --    0.97259   0.97343   0.97567   0.98013   0.98398
 Alpha virt. eigenvalues --    0.98573   0.98754   0.99211   0.99525   0.99778
 Alpha virt. eigenvalues --    1.00083   1.00451   1.00472   1.00910   1.01253
 Alpha virt. eigenvalues --    1.01776   1.01788   1.02102   1.02492   1.02836
 Alpha virt. eigenvalues --    1.03048   1.03431   1.03894   1.04062   1.04380
 Alpha virt. eigenvalues --    1.04890   1.05124   1.05488   1.05566   1.05917
 Alpha virt. eigenvalues --    1.06170   1.06453   1.07313   1.07401   1.07761
 Alpha virt. eigenvalues --    1.08292   1.08599   1.08939   1.09371   1.09492
 Alpha virt. eigenvalues --    1.09885   1.10183   1.10730   1.11030   1.11596
 Alpha virt. eigenvalues --    1.11919   1.12091   1.12434   1.12679   1.12869
 Alpha virt. eigenvalues --    1.13223   1.13856   1.13991   1.14108   1.14599
 Alpha virt. eigenvalues --    1.14963   1.15142   1.15276   1.15760   1.16298
 Alpha virt. eigenvalues --    1.16711   1.17376   1.17484   1.17887   1.18058
 Alpha virt. eigenvalues --    1.18448   1.18562   1.18889   1.19038   1.19550
 Alpha virt. eigenvalues --    1.19805   1.20101   1.20518   1.20712   1.21192
 Alpha virt. eigenvalues --    1.21732   1.22307   1.22749   1.23169   1.23308
 Alpha virt. eigenvalues --    1.23382   1.24158   1.24534   1.24938   1.25393
 Alpha virt. eigenvalues --    1.25551   1.26102   1.26398   1.26808   1.26997
 Alpha virt. eigenvalues --    1.27306   1.27759   1.27950   1.28148   1.28492
 Alpha virt. eigenvalues --    1.28913   1.29100   1.29698   1.30284   1.30799
 Alpha virt. eigenvalues --    1.30968   1.31429   1.31783   1.32409   1.32746
 Alpha virt. eigenvalues --    1.32986   1.33163   1.33749   1.34478   1.34713
 Alpha virt. eigenvalues --    1.34796   1.35577   1.36170   1.36363   1.36812
 Alpha virt. eigenvalues --    1.37082   1.37321   1.38264   1.38412   1.38635
 Alpha virt. eigenvalues --    1.38946   1.39416   1.39535   1.40070   1.40433
 Alpha virt. eigenvalues --    1.40667   1.40906   1.41059   1.41513   1.41815
 Alpha virt. eigenvalues --    1.42069   1.42303   1.42651   1.42917   1.43242
 Alpha virt. eigenvalues --    1.43471   1.43598   1.43960   1.44073   1.44263
 Alpha virt. eigenvalues --    1.44398   1.44937   1.45004   1.45192   1.45485
 Alpha virt. eigenvalues --    1.45694   1.46018   1.46093   1.46285   1.46481
 Alpha virt. eigenvalues --    1.46839   1.46974   1.47615   1.47844   1.48260
 Alpha virt. eigenvalues --    1.48323   1.48392   1.48563   1.49105   1.49293
 Alpha virt. eigenvalues --    1.49626   1.49719   1.50107   1.50212   1.50411
 Alpha virt. eigenvalues --    1.50616   1.51014   1.51220   1.51300   1.51465
 Alpha virt. eigenvalues --    1.51720   1.52051   1.52373   1.52567   1.52813
 Alpha virt. eigenvalues --    1.53165   1.53644   1.53729   1.53932   1.54310
 Alpha virt. eigenvalues --    1.54425   1.54872   1.55273   1.55397   1.55958
 Alpha virt. eigenvalues --    1.56047   1.56130   1.56227   1.56611   1.56869
 Alpha virt. eigenvalues --    1.57037   1.57624   1.57835   1.58136   1.58349
 Alpha virt. eigenvalues --    1.58535   1.59020   1.59134   1.59341   1.59708
 Alpha virt. eigenvalues --    1.59741   1.59964   1.60468   1.60647   1.60849
 Alpha virt. eigenvalues --    1.61233   1.61315   1.61687   1.61860   1.61899
 Alpha virt. eigenvalues --    1.62019   1.62445   1.62770   1.63000   1.63458
 Alpha virt. eigenvalues --    1.63759   1.63986   1.64487   1.64694   1.64911
 Alpha virt. eigenvalues --    1.65203   1.65677   1.65875   1.66287   1.66800
 Alpha virt. eigenvalues --    1.66895   1.67079   1.67437   1.68144   1.68233
 Alpha virt. eigenvalues --    1.68835   1.69020   1.69502   1.70163   1.70339
 Alpha virt. eigenvalues --    1.71058   1.71462   1.71736   1.72085   1.72417
 Alpha virt. eigenvalues --    1.72834   1.73257   1.73547   1.73890   1.74349
 Alpha virt. eigenvalues --    1.74549   1.74642   1.74838   1.75097   1.75357
 Alpha virt. eigenvalues --    1.75854   1.75956   1.76374   1.76855   1.76919
 Alpha virt. eigenvalues --    1.77098   1.77440   1.77904   1.78193   1.78633
 Alpha virt. eigenvalues --    1.78972   1.79296   1.79732   1.80132   1.80374
 Alpha virt. eigenvalues --    1.80642   1.81092   1.81311   1.81557   1.81915
 Alpha virt. eigenvalues --    1.82475   1.83210   1.83421   1.83743   1.84100
 Alpha virt. eigenvalues --    1.84184   1.84660   1.84818   1.85172   1.85730
 Alpha virt. eigenvalues --    1.85789   1.86188   1.86929   1.87123   1.87322
 Alpha virt. eigenvalues --    1.87742   1.87924   1.88152   1.88335   1.88870
 Alpha virt. eigenvalues --    1.88985   1.89727   1.89965   1.90029   1.90345
 Alpha virt. eigenvalues --    1.90852   1.90989   1.91357   1.91529   1.91642
 Alpha virt. eigenvalues --    1.92412   1.92490   1.92804   1.93459   1.93525
 Alpha virt. eigenvalues --    1.93581   1.94263   1.94441   1.94848   1.95069
 Alpha virt. eigenvalues --    1.95554   1.95758   1.96172   1.96443   1.96845
 Alpha virt. eigenvalues --    1.97216   1.97806   1.97922   1.98278   1.98407
 Alpha virt. eigenvalues --    1.98901   1.99690   2.00052   2.00305   2.00869
 Alpha virt. eigenvalues --    2.01371   2.01604   2.01862   2.02052   2.02747
 Alpha virt. eigenvalues --    2.02902   2.03232   2.03610   2.04140   2.04362
 Alpha virt. eigenvalues --    2.04495   2.04612   2.05102   2.05470   2.05671
 Alpha virt. eigenvalues --    2.05905   2.06325   2.06383   2.07003   2.07158
 Alpha virt. eigenvalues --    2.07289   2.07785   2.08364   2.08510   2.09243
 Alpha virt. eigenvalues --    2.09560   2.10376   2.10471   2.10940   2.11185
 Alpha virt. eigenvalues --    2.11740   2.11809   2.12173   2.12238   2.12875
 Alpha virt. eigenvalues --    2.12957   2.13738   2.14009   2.14151   2.14354
 Alpha virt. eigenvalues --    2.14881   2.15357   2.15629   2.15881   2.16309
 Alpha virt. eigenvalues --    2.16506   2.16867   2.17292   2.17814   2.18138
 Alpha virt. eigenvalues --    2.18369   2.18818   2.19175   2.19514   2.19902
 Alpha virt. eigenvalues --    2.20181   2.20605   2.21114   2.21642   2.21980
 Alpha virt. eigenvalues --    2.22368   2.22872   2.23110   2.23694   2.23889
 Alpha virt. eigenvalues --    2.24282   2.25029   2.25157   2.25629   2.25708
 Alpha virt. eigenvalues --    2.25836   2.26011   2.26493   2.26898   2.27527
 Alpha virt. eigenvalues --    2.27611   2.28102   2.28374   2.28635   2.29056
 Alpha virt. eigenvalues --    2.29169   2.29888   2.30032   2.30337   2.30587
 Alpha virt. eigenvalues --    2.31047   2.31360   2.31581   2.31682   2.32129
 Alpha virt. eigenvalues --    2.32450   2.32600   2.32774   2.33116   2.33211
 Alpha virt. eigenvalues --    2.34153   2.34400   2.34928   2.35146   2.35653
 Alpha virt. eigenvalues --    2.35819   2.35988   2.36696   2.36850   2.37269
 Alpha virt. eigenvalues --    2.37566   2.37853   2.38193   2.38659   2.39043
 Alpha virt. eigenvalues --    2.39250   2.39492   2.40249   2.40483   2.40929
 Alpha virt. eigenvalues --    2.41313   2.41702   2.41780   2.42453   2.42656
 Alpha virt. eigenvalues --    2.42975   2.43572   2.44011   2.44439   2.45374
 Alpha virt. eigenvalues --    2.45520   2.45618   2.45761   2.46004   2.46421
 Alpha virt. eigenvalues --    2.46747   2.47467   2.47514   2.47750   2.47881
 Alpha virt. eigenvalues --    2.48244   2.48571   2.48715   2.49237   2.49558
 Alpha virt. eigenvalues --    2.49827   2.50286   2.50351   2.50423   2.50693
 Alpha virt. eigenvalues --    2.50847   2.51320   2.51346   2.51639   2.52095
 Alpha virt. eigenvalues --    2.52243   2.52445   2.52954   2.53221   2.53581
 Alpha virt. eigenvalues --    2.53748   2.54158   2.54690   2.55047   2.55288
 Alpha virt. eigenvalues --    2.55483   2.55962   2.56269   2.56518   2.56612
 Alpha virt. eigenvalues --    2.56969   2.57158   2.57638   2.57925   2.58203
 Alpha virt. eigenvalues --    2.58620   2.58901   2.59088   2.59328   2.59844
 Alpha virt. eigenvalues --    2.60364   2.60736   2.60761   2.61120   2.61320
 Alpha virt. eigenvalues --    2.61848   2.62173   2.62533   2.62799   2.63024
 Alpha virt. eigenvalues --    2.63315   2.63814   2.64088   2.64204   2.64411
 Alpha virt. eigenvalues --    2.64944   2.65152   2.65486   2.65668   2.66193
 Alpha virt. eigenvalues --    2.66840   2.67018   2.67158   2.67566   2.67854
 Alpha virt. eigenvalues --    2.68022   2.68193   2.68617   2.68816   2.69073
 Alpha virt. eigenvalues --    2.69511   2.69780   2.69987   2.70197   2.70535
 Alpha virt. eigenvalues --    2.71029   2.71283   2.71627   2.72184   2.72249
 Alpha virt. eigenvalues --    2.72797   2.73005   2.73350   2.73838   2.74109
 Alpha virt. eigenvalues --    2.74918   2.75133   2.75270   2.75575   2.75933
 Alpha virt. eigenvalues --    2.76637   2.77011   2.77210   2.77710   2.77896
 Alpha virt. eigenvalues --    2.78435   2.78468   2.78533   2.79166   2.79566
 Alpha virt. eigenvalues --    2.79922   2.80096   2.80282   2.80678   2.81165
 Alpha virt. eigenvalues --    2.81346   2.81709   2.82021   2.82463   2.82755
 Alpha virt. eigenvalues --    2.83284   2.83472   2.83933   2.84022   2.84378
 Alpha virt. eigenvalues --    2.84596   2.84955   2.85335   2.85871   2.86108
 Alpha virt. eigenvalues --    2.86323   2.86909   2.87193   2.87499   2.87717
 Alpha virt. eigenvalues --    2.88023   2.88190   2.88604   2.88829   2.89120
 Alpha virt. eigenvalues --    2.89311   2.89841   2.89914   2.90329   2.90492
 Alpha virt. eigenvalues --    2.90626   2.90790   2.91066   2.91437   2.91480
 Alpha virt. eigenvalues --    2.92136   2.92553   2.92837   2.93041   2.93424
 Alpha virt. eigenvalues --    2.93778   2.93951   2.94208   2.94328   2.94700
 Alpha virt. eigenvalues --    2.94918   2.95134   2.95271   2.95556   2.96006
 Alpha virt. eigenvalues --    2.96579   2.96869   2.97145   2.97637   2.97738
 Alpha virt. eigenvalues --    2.98002   2.98301   2.98490   2.98571   2.99227
 Alpha virt. eigenvalues --    2.99493   2.99738   2.99980   3.00124   3.00483
 Alpha virt. eigenvalues --    3.00708   3.00941   3.01246   3.01630   3.01802
 Alpha virt. eigenvalues --    3.02302   3.02337   3.02812   3.02994   3.03131
 Alpha virt. eigenvalues --    3.03390   3.03501   3.03927   3.04404   3.04509
 Alpha virt. eigenvalues --    3.04632   3.05082   3.05285   3.05506   3.05595
 Alpha virt. eigenvalues --    3.06241   3.06342   3.06637   3.06852   3.07277
 Alpha virt. eigenvalues --    3.07534   3.07702   3.07874   3.08166   3.08509
 Alpha virt. eigenvalues --    3.08544   3.08895   3.09415   3.09715   3.10113
 Alpha virt. eigenvalues --    3.10398   3.10762   3.10800   3.11021   3.11409
 Alpha virt. eigenvalues --    3.11561   3.11773   3.12032   3.12290   3.12731
 Alpha virt. eigenvalues --    3.12928   3.13025   3.13263   3.13611   3.13869
 Alpha virt. eigenvalues --    3.13982   3.14202   3.14546   3.14806   3.15136
 Alpha virt. eigenvalues --    3.15393   3.15512   3.15700   3.16055   3.16313
[...]
  1675. RY*(   4) H  70                  0.00002     1.93627   
  1676. RY*(   5) H  70                  0.00000     2.91115   
  1677. RY*(   1) H  71                  0.00105     0.58992   
  1678. RY*(   2) H  71                  0.00015     2.05069   
  1679. RY*(   3) H  71                  0.00010     2.15224   
  1680. RY*(   4) H  71                  0.00007     2.94964   
  1681. RY*(   5) H  71                  0.00001     3.15042   
  1682. RY*(   1) H  72                  0.00030     1.03627   
  1683. RY*(   2) H  72                  0.00009     1.68345   
  1684. RY*(   3) H  72                  0.00003     1.99692   
  1685. RY*(   4) H  72                  0.00002     1.88357   
  1686. RY*(   5) H  72                  0.00000     2.88586   
  1687. RY*(   1) H  73                  0.00038     0.95020   
  1688. RY*(   2) H  73                  0.00005     1.60415   
  1689. RY*(   3) H  73                  0.00006     2.16048   
  1690. RY*(   4) H  73                  0.00003     2.00002   
  1691. RY*(   5) H  73                  0.00000     2.95904   
  1692. RY*(   1) H  74                  0.00039     1.03137   
  1693. RY*(   2) H  74                  0.00008     1.57660   
  1694. RY*(   3) H  74                  0.00003     2.06232   
  1695. RY*(   4) H  74                  0.00002     2.00670   
  1696. RY*(   5) H  74                  0.00001     2.81359   
  1697. RY*(   1) H  75                  0.00031     1.67074   
  1698. RY*(   2) H  75                  0.00008     2.62926   
  1699. RY*(   3) H  75                  0.00004     1.36134   
  1700. RY*(   4) H  75                  0.00005     2.27430   
  1701. RY*(   5) H  75                  0.00000     2.83197   
  1702. RY*(   1) H  76                  0.00037     1.70384   
  1703. RY*(   2) H  76                  0.00009     2.61401   
  1704. RY*(   3) H  76                  0.00005     2.31540   
  1705. RY*(   4) H  76                  0.00003     1.18489   
  1706. RY*(   5) H  76                  0.00000     3.04882   
  1707. RY*(   1) H  77                  0.00023     1.15862   
  1708. RY*(   2) H  77                  0.00007     1.55180   
  1709. RY*(   3) H  77                  0.00006     2.30223   
  1710. RY*(   4) H  77                  0.00003     2.44700   
  1711. RY*(   5) H  77                  0.00000     2.74942   
  1712. RY*(   1) H  78                  0.00042     0.95220   
  1713. RY*(   2) H  78                  0.00007     2.11946   
  1714. RY*(   3) H  78                  0.00004     2.28231   
  1715. RY*(   4) H  78                  0.00004     2.07466   
  1716. RY*(   5) H  78                  0.00001     2.96412   
  1717. RY*(   1) H  79                  0.00041     2.04171   
  1718. RY*(   2) H  79                  0.00031     1.57566   
  1719. RY*(   3) H  79                  0.00014     2.17088   
  1720. RY*(   4) H  79                  0.00010     1.34233   
  1721. RY*(   5) H  79                  0.00000     3.23543   
  1752. RY*(   1) H  86                  0.00018     1.50028   
  1753. RY*(   2) H  86                  0.00005     0.91966   
  1754. RY*(   3) H  86                  0.00006     2.15001   
  1755. RY*(   4) H  86                  0.00003     2.15003   
  1756. RY*(   5) H  86                  0.00001     2.91126   
  1757. RY*(   1) H  87                  0.00039     1.04342   
  1758. RY*(   2) H  87                  0.00006     1.63156   
  1759. RY*(   3) H  87                  0.00005     2.11235   
  1760. RY*(   4) H  87                  0.00003     2.04616   
  1761. RY*(   5) H  87                  0.00001     2.86665   
  1762. RY*(   1) H  88                  0.00048     1.62502   
  1763. RY*(   2) H  88                  0.00008     2.25217   
  1764. RY*(   3) H  88                  0.00004     2.37748   
  1765. RY*(   4) H  88                  0.00003     2.61256   
  1766. RY*(   5) H  88                  0.00001     2.00331   
  1767. RY*(   1) H  89                  0.00033     1.15005   
  1768. RY*(   2) H  89                  0.00006     1.38378   
  1769. RY*(   3) H  89                  0.00005     2.11040   
  1770. RY*(   4) H  89                  0.00004     2.26209   
  1771. RY*(   5) H  89                  0.00000     2.91601   
  1772. RY*(   1) H  90                  0.00024     1.08656   
  1773. RY*(   2) H  90                  0.00007     1.43112   
  1774. RY*(   3) H  90                  0.00005     2.09811   
  1775. RY*(   4) H  90                  0.00003     2.22210   
  1776. RY*(   5) H  90                  0.00001     2.88836   
  1777. RY*(   1) H  91                  0.00026     0.76599   
  1778. RY*(   2) H  91                  0.00008     1.68822   
  1779. RY*(   3) H  91                  0.00005     2.10844   
  1780. RY*(   4) H  91                  0.00003     2.24390   
  1781. RY*(   5) H  91                  0.00000     2.91370   
  1782. RY*(   1) H  92                  0.00098     0.53106   
  1783. RY*(   2) H  92                  0.00015     2.33038   
  1784. RY*(   3) H  92                  0.00010     2.45033   
  1785. RY*(   4) H  92                  0.00005     2.29323   
  1786. RY*(   5) H  92                  0.00001     3.10696   
  1787. RY*(   1) H  93                  0.00058     0.64610   
  1788. RY*(   2) H  93                  0.00018     2.37903   
  1789. RY*(   3) H  93                  0.00008     2.39688   
  1790. RY*(   4) H  93                  0.00005     2.29562   
  1791. RY*(   5) H  93                  0.00001     3.14919   
  1792. RY*(   1) H  94                  0.00064     0.95475   
  1793. RY*(   2) H  94                  0.00009     1.72117   
  1794. RY*(   3) H  94                  0.00004     2.09594   
  1795. RY*(   4) H  94                  0.00002     2.77046   
  1796. RY*(   5) H  94                  0.00002     1.75600   
  1797. RY*(   1) H  95                  0.00033     1.21298   
  1798. RY*(   2) H  95                  0.00009     1.51130   
  1799. RY*(   3) H  95                  0.00002     2.33691   
  1800. RY*(   4) H  95                  0.00002     2.35794   
  1801. RY*(   5) H  95                  0.00000     1.75060   
  1802. RY*(   1) H  96                  0.00054     0.82481   
  1803. RY*(   2) H  96                  0.00013     1.89706   
  1804. RY*(   3) H  96                  0.00005     2.21091   
  1805. RY*(   4) H  96                  0.00003     2.66798   
  1806. RY*(   5) H  96                  0.00000     2.96388   
  1807. RY*(   1) H  97                  0.00016     1.62010   
  1808. RY*(   2) H  97                  0.00009     1.57990   
  1809. RY*(   3) H  97                  0.00002     2.37909   
  1810. RY*(   4) H  97                  0.00000     1.69407   
  1811. RY*(   5) H  97                  0.00000     1.83245   
  1812. RY*(   1) H  98                  0.00018     1.27951   
  1813. RY*(   2) H  98                  0.00010     1.61293   
  1814. RY*(   3) H  98                  0.00001     2.20183   
  1815. RY*(   4) H  98                  0.00001     1.91083   
  1816. RY*(   5) H  98                  0.00001     2.14748   
  1817. RY*(   1) H  99                  0.00037     0.59835   
  1818. RY*(   2) H  99                  0.00010     2.17117   
  1819. RY*(   3) H  99                  0.00004     2.69110   
  1820. RY*(   4) H  99                  0.00001     2.51718   
  1821. RY*(   5) H  99                  0.00001     2.61899   
  1836. BD*(   1) C   7 - C   8          0.00556     0.25673   
  1837. BD*(   1) C   7 - H  89          0.00328     0.30716   
  1838. BD*(   1) C   7 - H  90          0.00303     0.31264   
  1839. BD*(   1) C   7 - H  91          0.00282     0.30704   
  1840. BD*(   1) C   8 - S   9          0.01611     0.05440   
  1841. BD*(   1) C   8 - H  92          0.01048     0.28637   
  1842. BD*(   1) C   8 - H  93          0.00664     0.30402   
  1843. BD*(   1) S   9 - C  10          0.00943     0.06368   
  1844. BD*(   1) S   9 -Fe  53          0.04462     0.15005   
  1845. BD*(   1) C  10 - H  86          0.00519     0.28828   
  1846. BD*(   1) C  10 - H  87          0.00373     0.28276   
  1847. BD*(   1) C  10 - H  88          0.00676     0.31125   
  1848. BD*(   1) C  11 - C  15          0.01022     0.41256   
  1849. BD*(   1) C  11 - C  42          0.00978     0.41669   
  1850. BD*(   1) C  11 - H  62          0.00566     0.36225   
  1851. BD*(   1) C  12 - C  18          0.01059     0.47319   
  1852. BD*(   1) C  12 - C  25          0.01047     0.47202   
  1853. BD*(   1) C  12 - H  71          0.00725     0.34770   
  1854. BD*(   1) C  13 - C  28          0.01024     0.46008   
  1855. BD*(   1) C  13 - C  32          0.01058     0.45758   
  1856. BD*(   1) C  13 - H  67          0.00728     0.35278   
  1857. BD*(   1) C  14 - C  35          0.00967     0.44747   
  1858. BD*(   1) C  14 - C  39          0.00988     0.45090   
  1859. BD*(   1) C  14 - H  63          0.00640     0.34910   
  1860. BD*(   1) C  15 - C  16          0.01624     0.37078   
  1861. BD*(   1) C  15 - N  49          0.01353     0.36888   
  1862. BD*(   2) C  15 - N  49          0.34213    -0.11277  187(v),191(v),1864(v),579(g)
                                                    1901(r),210(v),1462(g)
                                                    1922(r),578(g),474(v)
  1863. BD*(   1) C  16 - C  17          0.01027     0.46928   
  1864. BD*(   2) C  16 - C  17          0.12660    -0.04207  1862(v),191(v),1880(r)
                                                    1872(v),1873(v),1871(v)
  1865. BD*(   1) C  16 - C  20          0.01195     0.27492   
  1866. BD*(   1) C  17 - C  18          0.01635     0.37989   
  1867. BD*(   1) C  17 - C  19          0.00842     0.26049   
  1868. BD*(   1) C  18 - N  49          0.01488     0.36805   
  1869. BD*(   1) C  19 - H  72          0.00332     0.31081   
  1870. BD*(   1) C  19 - H  73          0.00284     0.32466   
  1871. BD*(   1) C  19 - H  74          0.00475     0.31402   
  1872. BD*(   1) C  20 - C  21          0.00614     0.27446   
  1873. BD*(   1) C  20 - H  75          0.00663     0.32679   
  1874. BD*(   1) C  20 - H  76          0.00620     0.33110   
  1875. BD*(   1) C  21 - C  22          0.04083     0.26751   
  1876. BD*(   1) C  21 - H  77          0.00529     0.31638   
  1877. BD*(   1) C  21 - H  78          0.00708     0.31537   
  1878. BD*(   1) C  22 - O  23          0.03350     0.44841   
  1879. BD*(   1) C  22 - O  24          0.02778     0.43450   
  1880. BD*(   2) C  22 - O  24          0.08377    -0.05156   
  1881. BD*(   1) O  23 - H  79          0.00785     0.28606   
  1882. BD*(   1) C  25 - C  26          0.01461     0.40170   
  1883. BD*(   1) C  25 - N  50          0.01570     0.32436   
  1884. BD*(   1) C  26 - C  27          0.01374     0.46543   
  1885. BD*(   2) C  26 - C  27          0.13652    -0.03454  1895(v),1890(v),196(v)
                                                    1893(v),1891(v)
  1886. BD*(   1) C  26 - C  29          0.00816     0.25985   
  1887. BD*(   1) C  27 - C  28          0.01906     0.33222   
  1888. BD*(   1) C  27 - C  30          0.01055     0.40581   
  1889. BD*(   1) C  28 - N  50          0.01224     0.34084   
  1890. BD*(   2) C  28 - N  50          0.23007    -0.10777  189(v),196(v),1885(v),209(v)
                                                    1901(r),918(g),1488(g)
                                                    526(v),1832(r)
  1891. BD*(   1) C  29 - H  68          0.00431     0.32644   
  1892. BD*(   1) C  29 - H  69          0.00244     0.32718   
  1893. BD*(   1) C  29 - H  70          0.00416     0.32354   
  1894. BD*(   1) C  30 - C  31          0.00328     0.41211   
  1895. BD*(   2) C  30 - C  31          0.02638    -0.05254   
  1896. BD*(   1) C  30 - H  96          0.00645     0.34963   
  1897. BD*(   1) C  31 - H  94          0.00381     0.35934   
  1898. BD*(   1) C  31 - H  95          0.00233     0.36159   
  1899. BD*(   1) C  32 - C  33          0.01577     0.36482   
  1900. BD*(   1) C  32 - N  51          0.01330     0.36130   
  1901. BD*(   2) C  32 - N  51          0.35999    -0.11381  189(v),197(v),199(v),209(v)
                                                    1890(r),1021(g),1862(r)
                                                    1514(g),1832(r)
  1902. BD*(   1) C  33 - C  34          0.01161     0.44817   
  1903. BD*(   1) C  33 - C  36          0.00713     0.26640   
  1904. BD*(   1) C  34 - C  35          0.01526     0.35668   
  1905. BD*(   1) C  34 - C  37          0.00971     0.41149   
  1906. BD*(   1) C  35 - N  51          0.01378     0.32978   
  1907. BD*(   1) C  36 - H  64          0.00215     0.32841   
  1908. BD*(   1) C  36 - H  65          0.00292     0.32498   
  1909. BD*(   1) C  36 - H  66          0.00252     0.32936   
  1910. BD*(   1) C  37 - C  38          0.00326     0.44863   
  1911. BD*(   1) C  37 - H  99          0.00391     0.34324   
  1912. BD*(   1) C  38 - H  97          0.00148     0.35533   
  1913. BD*(   1) C  38 - H  98          0.00184     0.35535   
  1914. BD*(   1) C  39 - C  40          0.01581     0.37869   
  1915. BD*(   1) C  39 - N  52          0.01438     0.34972   
  1916. BD*(   1) C  40 - C  41          0.00980     0.49861   
  1917. BD*(   2) C  40 - C  41          0.10113    -0.02101  1922(v),202(v),1925(v)
                                                    1926(v),1924(v)
  1918. BD*(   1) C  40 - C  43          0.00812     0.27618   
  1919. BD*(   1) C  41 - C  42          0.01690     0.36798   
  1920. BD*(   1) C  41 - C  44          0.01049     0.29641   
  1921. BD*(   1) C  42 - N  52          0.01318     0.36211   
  1922. BD*(   2) C  42 - N  52          0.23000    -0.09882  187(v),202(v),1917(v)
                                                    1282(g),210(v),209(v)
                                                    1540(g),474(v),1862(r)
                                                    1832(r)
  1923. BD*(   1) C  43 - H  59          0.00222     0.32897   
  1924. BD*(   1) C  43 - H  60          0.00334     0.32967   
  1925. BD*(   1) C  43 - H  61          0.00383     0.32646   
  1926. BD*(   1) C  44 - C  45          0.00584     0.27324   
  1927. BD*(   1) C  44 - H  57          0.00554     0.34049   
  1928. BD*(   1) C  44 - H  58          0.00570     0.34789   
  1929. BD*(   1) C  45 - C  46          0.04110     0.27387   
  1930. BD*(   1) C  45 - H  55          0.00565     0.32604   
  1931. BD*(   1) C  45 - H  56          0.00631     0.31002   
  1932. BD*(   1) C  46 - O  47          0.03572     0.41968   
  1933. BD*(   1) C  46 - O  48          0.02344     0.44048   
  1934. BD*(   2) C  46 - O  48          0.10884    -0.01891  1933(g),1931(v),1930(v)
                                                    1385(g)
  1935. BD*(   1) O  47 - H  54          0.00552     0.31285   
  1936. BD*(   1) N  49 -Fe  53          0.03461     0.26387   
  1937. BD*(   1) N  50 -Fe  53          0.03440     0.26461   
  1938. BD*(   1) N  51 -Fe  53          0.03530     0.27996   
  1939. BD*(   1) N  52 -Fe  53          0.03760     0.27226   
       -------------------------------
              Total Lewis  173.75100  ( 96.9623%)
        Valence non-Lewis    5.11237  (  2.8530%)
        Rydberg non-Lewis    0.33096  (  0.1847%)
       -------------------------------
            Total unit  2  179.19433  (100.0000%)
           Charge unit  2    2.80567
 1\1\GINC-NODE654\SP\UPBE1PBE\def2TZVP\C41H46Fe1N6O4S1(1+,6)\ZHARTOVSKA
 \01-Feb-2023\0\\# PBE1PBE/def2TZVP scf=qc empiricaldispersion=GD3BJ sc
 f=maxcycle=999 geom=check pop=nbo\\1vb6_III_H\\1,6\C,0,-2.424,-20.1679
 99,-17.756001\C,0,-1.867,-19.166,-16.792\N,0,-1.739,-17.827999,-17.097
 \C,0,-1.43,-19.306,-15.519\C,0,-1.25,-17.184999,-16.052999\N,0,-1.053,
 -18.058001,-15.081\C,0,-0.046,-17.419001,-8.269\C,0,-0.44,-17.849001,-
 9.667\S,0,0.424,-16.907,-10.952\C,0,2.103,-17.461,-10.658\C,0,-3.488,-
 18.146999,-11.841\C,0,0.475,-20.855,-12.647\C,0,2.812,-16.966999,-14.3
 44\C,0,-1.12,-14.231,-13.549\C,0,-2.587,-19.247999,-11.935\C,0,-2.932,
 -20.6,-11.506\C,0,-1.805,-21.367001,-11.727\C,0,-0.802,-20.481001,-12.
 283\C,0,-1.657,-22.875999,-11.434\C,0,-4.327,-21.063,-11.046\C,0,-4.33
 1,-21.563,-9.609\C,0,-3.95,-20.499001,-8.605\O,0,-2.992,-20.737,-7.867
 \O,0,-4.603,-19.431999,-8.572\C,0,1.452,-20.034,-13.173\C,0,2.769,-20.
 487,-13.523\C,0,3.487,-19.410999,-14.027\C,0,2.526,-18.271999,-13.951\
 C,0,3.248,-21.954,-13.337\C,0,4.848,-19.458,-14.494\C,0,6.023,-20.097,
 -13.992\C,0,1.931,-15.889,-14.27\C,0,2.322,-14.539,-14.688\C,0,1.194,-
 13.739,-14.465\C,0,0.167,-14.634,-13.918\C,0,3.717,-14.158,-15.246\C,0
 ,0.995,-12.333,-14.685\C,0,1.891,-11.248,-14.539\C,0,-2.116,-15.047,-1
 3.008\C,0,-3.443,-14.59,-12.61\C,0,-4.099,-15.687,-12.125\C,0,-3.174,-
 16.819,-12.245\C,0,-4.001,-13.156,-12.69\C,0,-5.525,-15.74,-11.562\C,0
 ,-5.357,-15.764,-10.037\C,0,-6.585,-15.349,-9.233\O,0,-6.445,-15.222,-
 7.988\O,0,-7.668,-15.154,-9.838\N,0,-1.292,-19.194,-12.411\N,0,1.284,-
 18.655001,-13.442\N,0,0.629,-15.962,-13.807\N,0,-1.964,-16.415001,-12.
 778\Fe,0,-0.402,-17.572001,-13.123\H,0,-5.5654052,-15.1829708,-7.60539
 093\H,0,-5.08749005,-16.75782718,-9.74618749\H,0,-4.55168658,-15.10830
 396,-9.77925399\H,0,-6.02223092,-16.62724052,-11.89436377\H,0,-6.07430
 299,-14.87180373,-11.86100076\H,0,-3.31581583,-12.53625783,-13.2297613
 3\H,0,-4.94451449,-13.1680529,-13.19451475\H,0,-4.13016516,-12.7678675
 4,-11.70127883\H,0,-4.46316194,-18.33105867,-11.44089848\H,0,-1.365058
 11,-13.1997123,-13.69491847\H,0,4.41882934,-14.93026432,-15.00947645\H
 ,0,3.65716398,-14.04351916,-16.30817409\H,0,4.03799666,-13.23720635,-1
 4.80554546\H,0,3.78931294,-16.77569619,-14.73536001\H,0,4.18904507,-21
 .96008368,-12.82778771\H,0,2.52677545,-22.49425537,-12.76006042\H,0,3.
 35791026,-22.41750451,-14.29511445\H,0,0.7338584,-21.88383212,-12.5077
 276\H,0,-0.75318818,-23.04617832,-10.8871333\H,0,-2.4924481,-23.210564
 43,-10.85521468\H,0,-1.62281814,-23.4168021,-12.35663948\H,0,-4.657999
 06,-21.85272864,-11.68761382\H,0,-5.00813605,-20.24189546,-11.1281037\
 H,0,-5.31133489,-21.92126563,-9.37343845\H,0,-3.63938766,-22.37528621,
 -9.52675961\H,0,-2.09583782,-20.6313472,-8.19461385\H,0,-1.04762584,-1
 6.13552516,-16.00250783\H,0,-1.9791923,-17.40946593,-17.97286399\H,0,-
 1.38602936,-20.21643011,-14.95856838\H,0,-1.74563411,-20.99042479,-17.
 84730015\H,0,-3.36763089,-20.52217969,-17.39681194\H,0,-2.5566325,-19.
 70717867,-18.71253289\H,0,2.74283065,-16.61187198,-10.53759093\H,0,2.1
 3140383,-18.05772314,-9.77029807\H,0,2.43711724,-18.04413915,-11.49059
 498\H,0,0.89035132,-16.90244772,-8.30531686\H,0,-0.79680988,-16.768834
 71,-7.87091921\H,0,0.04677072,-18.28197888,-7.64325023\H,0,-0.2111117,
 -18.88735683,-9.78669677\H,0,-1.4942386,-17.71082528,-9.78695183\H,0,5
 .97726104,-21.1108158,-13.65290492\H,0,6.94878472,-19.56177891,-13.955
 10762\H,0,5.01189251,-18.90501463,-15.39524715\H,0,2.23140216,-10.9625
 2302,-13.56558885\H,0,2.22828537,-10.71283971,-15.40198438\H,0,0.01221
 579,-12.06368705,-15.01135216\\Version=ES64L-G16RevA.03\State=6-A\HF=-
 3879.0673242\S2=9.038591\S2-1=0.\S2A=8.773894\RMSD=5.446e-09\Dipole=3.
 1436076,-0.9565232,-2.2908302\Quadrupole=-37.1786477,21.4823852,15.696
 2625,15.0147544,15.1904086,-10.0084857\PG=C01 [X(C41H46Fe1N6O4S1)]\\@


 THE RARE EARTHS PERPLEX US IN OUR RESEARCHES,
 BAFFLE US IN OUR SPECULATIONS, AND HAUNT US IN OUR
 VERY DREAMS.  THEY STRETCH LIKE AN UNKNOWN BEFORE US,
 MOCKING, MYSTIFYING, AND MURMURING STRANGE REVELATIONS
 AND POSSIBILITIES.  -- SIR WILLIAM CROOKE, 1832-1919
 Job cpu time:      23 days 22 hours 56 minutes 16.6 seconds.
 Elapsed time:       6 days  0 hours  9 minutes 53.0 seconds.
 File lengths (MBytes):  RWF=   3733 Int=      0 D2E=      0 Chk=    289 Scr=      1
 Normal termination of Gaussian 16 at Wed Feb  1 09:12:44 2023.
