 Entering Gaussian System, Link 0=g16
 Input=/net/homes/chemie/zhartovska/work/BioModel/Konrad/2ce0/2ce012/2ce016/2ce016.com
 Output=/net/homes/chemie/zhartovska/work/BioModel/Konrad/2ce0/2ce012/2ce016/2ce016.log
 Initial command:
 /afs/math/software/gaussian/g16.A03/g16/l1.exe "/scratch/zhartovska_gaussian.vLz8CFh/Gau-18415.inp" -scrdir="/scratch/zhartovska_gaussian.vLz8CFh/"
 Entering Link 1 = /afs/math/software/gaussian/g16.A03/g16/l1.exe PID=     18416.
  
 Copyright (c) 1988,1990,1992,1993,1995,1998,2003,2009,2016,
            Gaussian, Inc.  All Rights Reserved.
  
 This is part of the Gaussian(R) 16 program.  It is based on
 the Gaussian(R) 09 system (copyright 2009, Gaussian, Inc.),
 the Gaussian(R) 03 system (copyright 2003, Gaussian, Inc.),
 the Gaussian(R) 98 system (copyright 1998, Gaussian, Inc.),
 the Gaussian(R) 94 system (copyright 1995, Gaussian, Inc.),
 the Gaussian 92(TM) system (copyright 1992, Gaussian, Inc.),
 the Gaussian 90(TM) system (copyright 1990, Gaussian, Inc.),
 the Gaussian 88(TM) system (copyright 1988, Gaussian, Inc.),
 the Gaussian 86(TM) system (copyright 1986, Carnegie Mellon
 University), and the Gaussian 82(TM) system (copyright 1983,
 Carnegie Mellon University). Gaussian is a federally registered
 trademark of Gaussian, Inc.
  
 This software contains proprietary and confidential information,
 including trade secrets, belonging to Gaussian, Inc.
  
 This software is provided under written license and may be
 used, copied, transmitted, or stored only in accord with that
 written license.
  
 The following legend is applicable only to US Government
 contracts under FAR:
  
                    RESTRICTED RIGHTS LEGEND
  
 Use, reproduction and disclosure by the US Government is
 subject to restrictions as set forth in subparagraphs (a)
 and (c) of the Commercial Computer Software - Restricted
 Rights clause in FAR 52.227-19.
  
 Gaussian, Inc.
 340 Quinnipiac St., Bldg. 40, Wallingford CT 06492
  
  
 ---------------------------------------------------------------
 Warning -- This program may not be used in any manner that
 competes with the business of Gaussian, Inc. or will provide
 assistance to any competitor of Gaussian, Inc.  The licensee
 of this program is prohibited from giving any competitor of
 Gaussian, Inc. access to this program.  By using this program,
 the user acknowledges that Gaussian, Inc. is engaged in the
 business of creating and licensing software in the field of
 computational chemistry and represents and warrants to the
 licensee that it is not a competitor of Gaussian, Inc. and that
 it will not use this program in any manner prohibited above.
 ---------------------------------------------------------------
  

 Cite this work as:
 Gaussian 16, Revision A.03,
 M. J. Frisch, G. W. Trucks, H. B. Schlegel, G. E. Scuseria, 
 M. A. Robb, J. R. Cheeseman, G. Scalmani, V. Barone, 
 G. A. Petersson, H. Nakatsuji, X. Li, M. Caricato, A. V. Marenich, 
 J. Bloino, B. G. Janesko, R. Gomperts, B. Mennucci, H. P. Hratchian, 
 J. V. Ortiz, A. F. Izmaylov, J. L. Sonnenberg, D. Williams-Young, 
 F. Ding, F. Lipparini, F. Egidi, J. Goings, B. Peng, A. Petrone, 
 T. Henderson, D. Ranasinghe, V. G. Zakrzewski, J. Gao, N. Rega, 
 G. Zheng, W. Liang, M. Hada, M. Ehara, K. Toyota, R. Fukuda, 
 J. Hasegawa, M. Ishida, T. Nakajima, Y. Honda, O. Kitao, H. Nakai, 
 T. Vreven, K. Throssell, J. A. Montgomery, Jr., J. E. Peralta, 
 F. Ogliaro, M. J. Bearpark, J. J. Heyd, E. N. Brothers, K. N. Kudin, 
 V. N. Staroverov, T. A. Keith, R. Kobayashi, J. Normand, 
 K. Raghavachari, A. P. Rendell, J. C. Burant, S. S. Iyengar, 
 J. Tomasi, M. Cossi, J. M. Millam, M. Klene, C. Adamo, R. Cammi, 
 J. W. Ochterski, R. L. Martin, K. Morokuma, O. Farkas, 
 J. B. Foresman, and D. J. Fox, Gaussian, Inc., Wallingford CT, 2016.
 
 ******************************************
 Gaussian 16:  ES64L-G16RevA.03 25-Dec-2016
                18-Feb-2023 
 ******************************************
 %nprocs=12
 Will use up to   12 processors via shared memory.
 %mem=16GB
 %oldchk=2ce0_III_D.chk
 %chk=2ce0_III_H.chk
 Copying data from "2ce0_III_D.chk" to current chk file "2ce0_III_H.chk"
 IOpt=  2 FromEx=T IUOpen= 4 IOptOp= 5 NList=   0 IFRang= 0 IUIn= 4 IUOut= 2.
 ----------------------------------------------------------------------
 # PBE1PBE/def2TZVP empiricaldispersion=GD3BJ scf=maxcycle=999 geom=che
 ck pop=nbo
 ----------------------------------------------------------------------
 1/29=2,38=1,172=1/1;
 2/12=2,40=1/2;
 3/5=44,7=101,11=2,14=-4,25=1,30=1,74=-13,124=41/1,2,3;
 4//1;
 5/5=2,7=999,38=5/2;
 6/7=2,8=2,9=2,10=2,28=1,40=1/1,7;
 99/5=1,9=1/99;
 ----------
 2ce0_III_H
 ----------
 Structure from the checkpoint file:  "2ce0_III_H.chk"
 Charge =  1 Multiplicity = 6
 Z-Matrix found in chk file.
 C,0,3.129,43.032001,9.118
 C,0,1.868,43.118999,8.322
 N,0,0.821,42.243,8.505
 C,0,1.498,43.953999,7.325
 C,0,-0.145,42.541,7.649
 N,0,0.246,43.563999,6.905
 C,0,-4.421,46.051998,4.498
 C,0,-3.158,46.528999,3.845
 S,0,-1.989,45.251999,3.656
 C,0,-0.978,45.750999,2.271
 Fe,0,-0.796,44.398998,5.398
 C,0,-2.981,41.816002,5.156
 C,0,1.359,42.792999,3.29
 C,0,1.179,47.182999,5.304
 C,0,-2.686,45.830002,7.849
 N,0,-0.812,42.647999,4.396
 C,0,-1.805,41.693001,4.471
 C,0,-1.402,40.542,3.702
 C,0,-0.199,40.821999,3.166
 C,0,0.187,42.147999,3.598
 C,0,0.669,39.923,2.262
 C,0,-2.244,39.243,3.594
 C,0,-2.013,38.433998,4.89
 C,0,-2.937,37.243999,5.074
 O,0,-3.965,37.154999,4.362
 O,0,-2.67,36.370998,5.955
 N,0,0.947,44.882999,4.491
 C,0,1.707,44.073002,3.673
 C,0,2.888,44.797001,3.259
 C,0,2.813,46.014999,3.812
 C,0,1.608,46.085999,4.592
 C,0,3.978,44.203999,2.337
 C,0,3.809,47.18,3.639
 C,0,4.003,47.707001,2.397
 N,0,-0.773,46.168999,6.389
 C,0,0.132,47.192001,6.189
 C,0,-0.148,48.237999,7.131
 C,0,-1.209,47.856998,7.847
 C,0,-1.621,46.554001,7.392
 C,0,0.67,49.546001,7.247
 C,0,-1.891,48.624001,8.997
 C,0,-2.329,49.888,8.858
 N,0,-2.532,43.910999,6.343
 C,0,-3.176,44.685001,7.288
 C,0,-4.458,44.120998,7.604
 C,0,-4.542,42.891998,6.757
 C,0,-3.319,42.821999,6.016
 C,0,-5.505,44.655998,8.574
 C,0,-5.733,41.931,6.71
 C,0,-6.646,42.365002,5.56
 C,0,-7.816,41.424,5.435
 O,0,-8.941,41.839001,5.799
 O,0,-7.605,40.273998,4.973
 H,0,3.89841926,43.59277462,8.62971018
 H,0,2.96176316,43.43251599,10.09601819
 H,0,3.43009121,42.00839439,9.19845863
 H,0,2.07229992,44.76791853,6.93434081
 H,0,0.79438889,41.50176912,9.17572247
 H,0,-1.08616166,42.03788724,7.57159017
 H,0,-0.0559105,45.20847086,2.28872499
 H,0,-1.49626488,45.54375797,1.35811848
 H,0,-0.77608769,46.79974218,2.33633889
 H,0,-4.25028536,45.91186518,5.54495716
 H,0,-5.19246041,46.77985979,4.35669869
 H,0,-4.72137288,45.12394085,4.05824318
 H,0,-2.72966825,47.3049142,4.44448938
 H,0,-3.39549254,46.92687114,2.8805338
 H,0,3.4481434,48.61727382,2.30514394
 H,0,5.04412221,47.90787717,2.25342666
 H,0,3.66902419,47.00954726,1.65746066
 H,0,4.3403097,47.56910042,4.48233319
 H,0,-3.02108093,50.11391748,9.64214621
 H,0,-1.49874754,50.56094518,8.91020771
 H,0,-2.81563366,49.99474417,7.91106106
 H,0,-2.02053181,48.1335325,9.93910517
 H,0,1.6001253,49.4319812,6.73050565
 H,0,0.11704172,50.35223613,6.81211835
 H,0,0.85858351,49.7584346,8.27860468
 H,0,1.70496398,48.10278021,5.15478732
 H,0,4.84900554,43.97617213,2.91522509
 H,0,3.60995628,43.30973009,1.87904046
 H,0,4.22948091,44.91564886,1.57857279
 H,0,2.06872946,42.25366009,2.69814053
 H,0,1.59189139,39.70415158,2.75725432
 H,0,0.14755698,39.01075391,2.05999939
 H,0,0.86972419,40.43041649,1.34159883
 H,0,-1.92525836,38.67212648,2.74700107
 H,0,-3.28104972,39.48847865,3.49824979
 H,0,-1.00344714,38.0794518,4.89005661
 H,0,-2.14063138,39.0914623,5.72447643
 H,0,-1.75621791,36.16385985,6.16403608
 H,0,-6.70484702,39.96439451,4.84862038
 H,0,-6.08962855,42.36051465,4.64603574
 H,0,-7.0068373,43.35437719,5.74929654
 H,0,-5.386234,40.93315698,6.53981585
 H,0,-6.26992166,41.97480529,7.63449783
 H,0,-3.70981915,41.04758697,5.00348447
 H,0,-5.11506155,45.51268913,9.08285
 H,0,-6.38492412,44.93303573,8.03188964
 H,0,-5.74999283,43.89783122,9.288186
 H,0,-3.18085816,46.19281164,8.72557548
 Recover connectivity data from disk.
 Stoichiometry    C41H48FeN6O4S(1+,6)
 Framework group  C1[X(C41H48FeN6O4S)]
 Deg. of freedom   297
 Full point group                 C1      NOp   1
 Largest Abelian subgroup         C1      NOp   1
 Largest concise Abelian subgroup C1      NOp   1
                         Standard orientation:                         
 ---------------------------------------------------------------------
 Center     Atomic      Atomic             Coordinates (Angstroms)
 Number     Number       Type             X           Y           Z
 ---------------------------------------------------------------------
      1          6           0        2.463463   -1.764388    4.967158
      2          6           0        1.671824   -1.242089    3.813114
      3          7           0        0.322260   -0.982503    3.904583
      4          6           0        2.029958   -0.959966    2.540211
      5          6           0       -0.115795   -0.558411    2.728594
      6          7           0        0.895494   -0.553455    1.874070
      7          6           0       -0.421372    2.908623   -2.603046
      8          6           0        0.771200    2.054163   -2.914137
      9         16           0        0.606091    0.436851   -2.289596
     10          6           0        1.636523   -0.573279   -3.341828
     11         26           0        0.796276   -0.059784   -0.075413
     12          6           0       -2.587887   -0.250923   -0.200191
     13          6           0        1.024013   -3.405572   -0.724072
     14          6           0        4.184291    0.235404   -0.382558
     15          6           0        0.620957    3.164099    1.021453
     16          7           0       -0.525684   -1.544961   -0.417364
     17          6           0       -1.898986   -1.417457   -0.378922
     18          6           0       -2.491977   -2.718452   -0.564252
     19          6           0       -1.484228   -3.596057   -0.729045
     20          6           0       -0.236515   -2.869092   -0.636142
     21          6           0       -1.580156   -5.118086   -0.959399
     22          6           0       -4.021410   -2.978554   -0.529429
     23          6           0       -4.449672   -3.016010    0.954704
     24          6           0       -5.949539   -3.023321    1.187244
     25          8           0       -6.714296   -2.721101    0.240957
     26          8           0       -6.406437   -3.312859    2.334847
     27          7           0        2.312777   -1.344790   -0.454805
     28          6           0        2.211498   -2.703112   -0.672798
     29          6           0        3.535279   -3.247426   -0.876898
     30          6           0        4.395208   -2.223284   -0.795614
     31          6           0        3.649515   -1.024726   -0.525674
     32          6           0        3.814941   -4.743791   -1.146188
     33          6           0        5.924981   -2.273449   -0.986537
     34          6           0        6.429940   -2.659837   -2.192211
     35          7           0        2.136879    1.426952    0.253084
     36          6           0        3.499967    1.340694    0.052814
     37          6           0        4.099834    2.577362    0.465957
     38          6           0        3.114763    3.383624    0.869834
     39          6           0        1.866369    2.676958    0.740577
     40          6           0        5.619944    2.862370    0.427416
     41          6           0        3.240751    4.817073    1.422345
     42          6           0        3.882389    5.791676    0.753533
     43          7           0       -0.718007    1.235644    0.341334
     44          6           0       -0.563970    2.554020    0.722120
     45          6           0       -1.838128    3.215020    0.754973
     46          6           0       -2.816654    2.154920    0.363077
     47          6           0       -2.057642    0.962911    0.133457
     48          6           0       -2.131335    4.670572    1.099550
     49          6           0       -4.328797    2.354170    0.229184
     50          6           0       -4.634230    2.688767   -1.233410
     51          6           0       -6.118462    2.850153   -1.435948
     52          8           0       -6.560756    4.008450   -1.617805
     53          8           0       -6.835569    1.817834   -1.412658
     54          1           0        3.389156   -2.166535    4.611814
     55          1           0        2.660815   -0.967933    5.653898
     56          1           0        1.907480   -2.532826    5.462421
     57          1           0        3.013718   -1.038184    2.126693
     58          1           0       -0.236596   -1.095875    4.726061
     59          1           0       -1.121210   -0.267758    2.505968
     60          1           0        1.853040   -1.497454   -2.847943
     61          1           0        1.123460   -0.771068   -4.259730
     62          1           0        2.550450   -0.056532   -3.548250
     63          1           0       -0.397312    3.192727   -1.571733
     64          1           0       -0.401005    3.785944   -3.215249
     65          1           0       -1.316671    2.356834   -2.800199
     66          1           0        1.641577    2.504358   -2.484405
     67          1           0        0.894515    2.004687   -3.975855
     68          1           0        6.731505   -1.795476   -2.746141
     69          1           0        7.275466   -3.296967   -2.037130
     70          1           0        5.679240   -3.190383   -2.739817
     71          1           0        6.580750   -2.008586   -0.183596
     72          1           0        3.595704    6.743802    1.148715
     73          1           0        4.939008    5.663488    0.863189
     74          1           0        3.622926    5.743108   -0.283395
     75          1           0        2.802277    5.044795    2.371440
     76          1           0        6.152727    1.941426    0.313814
     77          1           0        5.841233    3.506573   -0.397771
     78          1           0        5.917220    3.336229    1.339548
     79          1           0        5.217223    0.362616   -0.631091
     80          1           0        4.237736   -5.190790   -0.270782
     81          1           0        2.899066   -5.239075   -1.392699
     82          1           0        4.501587   -4.837216   -1.961473
     83          1           0        1.092606   -4.466679   -0.843432
     84          1           0       -1.116962   -5.632222   -0.143301
     85          1           0       -2.608979   -5.404924   -1.023805
     86          1           0       -1.081078   -5.373017   -1.870898
     87          1           0       -4.241764   -3.916161   -0.995515
     88          1           0       -4.536308   -2.189748   -1.036937
     89          1           0       -4.035321   -3.895023    1.402531
     90          1           0       -4.037068   -2.159589    1.445826
     91          1           0       -5.944346   -3.945303    2.889903
     92          1           0       -6.462881    0.980863   -1.125981
     93          1           0       -4.276062    1.898097   -1.859077
     94          1           0       -4.140245    3.600278   -1.498033
     95          1           0       -4.838256    1.455741    0.508787
     96          1           0       -4.644629    3.160045    0.858244
     97          1           0       -3.648539   -0.292479   -0.335059
     98          1           0       -1.227983    5.152446    1.410440
     99          1           0       -2.523160    5.169169    0.237706
    100          1           0       -2.848689    4.711876    1.892391
    101          1           0        0.569268    4.108891    1.521050
 ---------------------------------------------------------------------
 Rotational constants (GHZ):           0.0666780           0.0439529           0.0341569
 Standard basis: def2TZVP (5D, 7F)
 There are  2218 symmetry adapted cartesian basis functions of A   symmetry.
 There are  1951 symmetry adapted basis functions of A   symmetry.
  1951 basis functions,  3156 primitive gaussians,  2218 cartesian basis functions
   207 alpha electrons      202 beta electrons
       nuclear repulsion energy      8975.5084355631 Hartrees.
 NAtoms=  101 NActive=  101 NUniq=  101 SFac= 1.00D+00 NAtFMM=   60 NAOKFM=T Big=T
 Integral buffers will be    131072 words long.
 Raffenetti 2 integral format.
 Two-electron integral symmetry is turned on.
 Nuclear repulsion after empirical dispersion term =     8975.3572036892 Hartrees.
 One-electron integrals computed using PRISM.
   1 Symmetry operations used in ECPInt.
 ECPInt:  NShTT=  305371 NPrTT=  941867 LenC2=  224412 LenP2D=  447641.
 LDataN:  DoStor=T MaxTD1= 6 Len=  172
 NBasis=  1951 RedAO= T EigKep=  3.15D-06  NBF=  1951
 NBsUse=  1951 1.00D-06 EigRej= -1.00D+00 NBFU=  1951
 ExpMin= 4.20D-02 ExpMax= 3.01D+05 ExpMxC= 2.91D+03 IAcc=3 IRadAn=         5 AccDes= 0.00D+00
 Harris functional with IExCor= 1009 and IRadAn=       5 diagonalized for initial guess.
 HarFok:  IExCor= 1009 AccDes= 0.00D+00 IRadAn=         5 IDoV= 1 UseB2=F ITyADJ=14
 ICtDFT=  3500011 ScaDFX=  1.000000  1.000000  1.000000  1.000000
 FoFCou: FMM=F IPFlag=           0 FMFlag=      100000 FMFlg1=        2001
         NFxFlg=           0 DoJE=T BraDBF=F KetDBF=T FulRan=T
         wScrn=  0.000000 ICntrl=       500 IOpCl=  0 I1Cent=   200000004 NGrid=           0
         NMat0=    1 NMatS0=      1 NMatT0=    0 NMatD0=    1 NMtDS0=    0 NMtDT0=    0
 Petite list used in FoFCou.
 Initial guess <Sx>= 0.0000 <Sy>= 0.0000 <Sz>= 2.5000 <S**2>= 8.7500 S= 2.5000
 Requested convergence on RMS density matrix=1.00D-08 within 999 cycles.
 Requested convergence on MAX density matrix=1.00D-06.
 Requested convergence on             energy=1.00D-06.
 No special actions if energy rises.
 EnCoef did     7 forward-backward iterations
 EnCoef did   100 forward-backward iterations
 EnCoef did    13 forward-backward iterations
 EnCoef did     5 forward-backward iterations
 EnCoef did    14 forward-backward iterations
 EnCoef did     9 forward-backward iterations
 EnCoef did    10 forward-backward iterations
 Restarting incremental Fock formation.
 Restarting incremental Fock formation.
 Restarting incremental Fock formation.
 SCF Done:  E(UPBE1PBE) =  -3880.37936379     A.U. after   64 cycles
            NFock= 64  Conv=0.11D-08     -V/T= 2.0029
 <Sx>= 0.0000 <Sy>= 0.0000 <Sz>= 2.5000 <S**2>= 8.8194 S= 2.5115
 <L.S>= 0.000000000000E+00
 Annihilation of the first spin contaminant:
 S**2 before annihilation     8.8194,   after     8.7511
 Hyperfine terms turned off by default for NAtoms > 100.

 **********************************************************************

            Population analysis using the SCF density.

 **********************************************************************

 Orbital symmetries:
 Alpha Orbitals:
       Occupied  (A) (A) (A) (A) (A) (A) (A) (A) (A) (A) (A) (A)
                 (A) (A) (A) (A) (A) (A) (A) (A) (A) (A) (A) (A)
                 (A) (A) (A) (A) (A) (A) (A) (A) (A) (A) (A) (A)
                 (A) (A) (A) (A) (A) (A) (A) (A) (A) (A) (A) (A)
                 (A) (A) (A) (A) (A) (A) (A) (A) (A) (A) (A) (A)
                 (A) (A) (A) (A) (A) (A) (A) (A) (A) (A) (A) (A)
                 (A) (A) (A) (A) (A) (A) (A) (A) (A) (A) (A) (A)
                 (A) (A) (A) (A) (A) (A) (A) (A) (A) (A) (A) (A)
                 (A) (A) (A) (A) (A) (A) (A) (A) (A) (A) (A) (A)
                 (A) (A) (A) (A) (A) (A) (A) (A) (A) (A) (A) (A)
                 (A) (A) (A) (A) (A) (A) (A) (A) (A) (A) (A) (A)
                 (A) (A) (A) (A) (A) (A) (A) (A) (A) (A) (A) (A)
                 (A) (A) (A) (A) (A) (A) (A) (A) (A) (A) (A) (A)
                 (A) (A) (A) (A) (A) (A) (A) (A) (A) (A) (A) (A)
                 (A) (A) (A) (A) (A) (A) (A) (A) (A) (A) (A) (A)
                 (A) (A) (A) (A) (A) (A) (A) (A) (A) (A) (A) (A)
                 (A) (A) (A) (A) (A) (A) (A) (A) (A) (A) (A) (A)
                 (A) (A) (A)
       Virtual   (A) (A) (A) (A) (A) (A) (A) (A) (A) (A) (A) (A)
                 (A) (A) (A) (A) (A) (A) (A) (A) (A) (A) (A) (A)
                 (A) (A) (A) (A) (A) (A) (A) (A) (A) (A) (A) (A)
                 (A) (A) (A) (A) (A) (A) (A) (A) (A) (A) (A) (A)
                 (A) (A) (A) (A) (A) (A) (A) (A) (A) (A) (A) (A)
                 (A) (A) (A) (A) (A) (A) (A) (A) (A) (A) (A) (A)
                 (A) (A) (A) (A) (A) (A) (A) (A) (A) (A) (A) (A)
                 (A) (A) (A) (A) (A) (A) (A) (A) (A) (A) (A) (A)
                 (A) (A) (A) (A) (A) (A) (A) (A) (A) (A) (A) (A)
                 (A) (A) (A) (A) (A) (A) (A) (A) (A) (A) (A) (A)
                 (A) (A) (A) (A) (A) (A) (A) (A) (A) (A) (A) (A)
                 (A) (A) (A) (A) (A) (A) (A) (A) (A) (A) (A) (A)
                 (A) (A) (A) (A) (A) (A) (A) (A) (A) (A) (A) (A)
                 (A) (A) (A) (A) (A) (A) (A) (A) (A) (A) (A) (A)
                 (A) (A) (A) (A) (A) (A) (A) (A) (A) (A) (A) (A)
                 (A) (A) (A) (A) (A) (A) (A) (A) (A) (A) (A) (A)
                 (A) (A) (A) (A) (A) (A) (A) (A) (A) (A) (A) (A)
                 (A) (A) (A) (A) (A) (A) (A) (A) (A) (A) (A) (A)
                 (A) (A) (A) (A) (A) (A) (A) (A) (A) (A) (A) (A)
                 (A) (A) (A) (A) (A) (A) (A) (A) (A) (A) (A) (A)
                 (A) (A) (A) (A) (A) (A) (A) (A) (A) (A) (A) (A)
                 (A) (A) (A) (A) (A) (A) (A) (A) (A) (A) (A) (A)
                 (A) (A) (A) (A) (A) (A) (A) (A) (A) (A) (A) (A)
                 (A) (A) (A) (A) (A) (A) (A) (A) (A) (A) (A) (A)
                 (A) (A) (A) (A) (A) (A) (A) (A) (A) (A) (A) (A)
                 (A) (A) (A) (A) (A) (A) (A) (A) (A) (A) (A) (A)
                 (A) (A) (A) (A) (A) (A) (A) (A) (A) (A) (A) (A)
                 (A) (A) (A) (A) (A) (A) (A) (A) (A) (A) (A) (A)
                 (A) (A) (A) (A) (A) (A) (A) (A) (A) (A) (A) (A)
                 (A) (A) (A) (A) (A) (A) (A) (A) (A) (A) (A) (A)
                 (A) (A) (A) (A) (A) (A) (A) (A) (A) (A) (A) (A)
                 (A) (A) (A) (A) (A) (A) (A) (A) (A) (A) (A) (A)
                 (A) (A) (A) (A) (A) (A) (A) (A) (A) (A) (A) (A)
                 (A) (A) (A) (A) (A) (A) (A) (A) (A) (A) (A) (A)
                 (A) (A) (A) (A) (A) (A) (A) (A) (A) (A) (A) (A)
                 (A) (A) (A) (A) (A) (A) (A) (A) (A) (A) (A) (A)
                 (A) (A) (A) (A) (A) (A) (A) (A) (A) (A) (A) (A)
                 (A) (A) (A) (A) (A) (A) (A) (A) (A) (A) (A) (A)
                 (A) (A) (A) (A) (A) (A) (A) (A) (A) (A) (A) (A)
                 (A) (A) (A) (A) (A) (A) (A) (A) (A) (A) (A) (A)
                 (A) (A) (A) (A) (A) (A) (A) (A) (A) (A) (A) (A)
                 (A) (A) (A) (A) (A) (A) (A) (A) (A) (A) (A) (A)
                 (A) (A) (A) (A) (A) (A) (A) (A) (A) (A) (A) (A)
                 (A) (A) (A) (A) (A) (A) (A) (A) (A) (A) (A) (A)
                 (A) (A) (A) (A) (A) (A) (A) (A) (A) (A) (A) (A)
                 (A) (A) (A) (A) (A) (A) (A) (A) (A) (A) (A) (A)
                 (A) (A) (A) (A) (A) (A) (A) (A) (A) (A) (A) (A)
                 (A) (A) (A) (A) (A) (A) (A) (A) (A) (A) (A) (A)
                 (A) (A) (A) (A) (A) (A) (A) (A) (A) (A) (A) (A)
                 (A) (A) (A) (A) (A) (A) (A) (A) (A) (A) (A) (A)
                 (A) (A) (A) (A) (A) (A) (A) (A) (A) (A) (A) (A)
                 (A) (A) (A) (A) (A) (A) (A) (A) (A) (A) (A) (A)
                 (A) (A) (A) (A) (A) (A) (A) (A) (A) (A) (A) (A)
                 (A) (A) (A) (A) (A) (A) (A) (A) (A) (A) (A) (A)
                 (A) (A) (A) (A) (A) (A) (A) (A) (A) (A) (A) (A)
                 (A) (A) (A) (A) (A) (A) (A) (A) (A) (A) (A) (A)
                 (A) (A) (A) (A) (A) (A) (A) (A) (A) (A) (A) (A)
                 (A) (A) (A) (A) (A) (A) (A) (A) (A) (A) (A) (A)
                 (A) (A) (A) (A) (A) (A) (A) (A) (A) (A) (A) (A)
                 (A) (A) (A) (A) (A) (A) (A) (A) (A) (A) (A) (A)
                 (A) (A) (A) (A) (A) (A) (A) (A) (A) (A) (A) (A)
                 (A) (A) (A) (A) (A) (A) (A) (A) (A) (A) (A) (A)
                 (A) (A) (A) (A) (A) (A) (A) (A) (A) (A) (A) (A)
                 (A) (A) (A) (A) (A) (A) (A) (A) (A) (A) (A) (A)
                 (A) (A) (A) (A) (A) (A) (A) (A) (A) (A) (A) (A)
                 (A) (A) (A) (A) (A) (A) (A) (A) (A) (A) (A) (A)
                 (A) (A) (A) (A) (A) (A) (A) (A) (A) (A) (A) (A)
                 (A) (A) (A) (A) (A) (A) (A) (A) (A) (A) (A) (A)
                 (A) (A) (A) (A) (A) (A) (A) (A) (A) (A) (A) (A)
                 (A) (A) (A) (A) (A) (A) (A) (A) (A) (A) (A) (A)
                 (A) (A) (A) (A) (A) (A) (A) (A) (A) (A) (A) (A)
                 (A) (A) (A) (A) (A) (A) (A) (A) (A) (A) (A) (A)
                 (A) (A) (A) (A) (A) (A) (A) (A) (A) (A) (A) (A)
                 (A) (A) (A) (A) (A) (A) (A) (A) (A) (A) (A) (A)
                 (A) (A) (A) (A) (A) (A) (A) (A) (A) (A) (A) (A)
                 (A) (A) (A) (A) (A) (A) (A) (A) (A) (A) (A) (A)
                 (A) (A) (A) (A) (A) (A) (A) (A) (A) (A) (A) (A)
                 (A) (A) (A) (A) (A) (A) (A) (A) (A) (A) (A) (A)
                 (A) (A) (A) (A) (A) (A) (A) (A) (A) (A) (A) (A)
                 (A) (A) (A) (A) (A) (A) (A) (A) (A) (A) (A) (A)
                 (A) (A) (A) (A) (A) (A) (A) (A) (A) (A) (A) (A)
                 (A) (A) (A) (A) (A) (A) (A) (A) (A) (A) (A) (A)
                 (A) (A) (A) (A) (A) (A) (A) (A) (A) (A) (A) (A)
                 (A) (A) (A) (A) (A) (A) (A) (A) (A) (A) (A) (A)
                 (A) (A) (A) (A) (A) (A) (A) (A) (A) (A) (A) (A)
                 (A) (A) (A) (A) (A) (A) (A) (A) (A) (A) (A) (A)
                 (A) (A) (A) (A) (A) (A) (A) (A) (A) (A) (A) (A)
                 (A) (A) (A) (A) (A) (A) (A) (A) (A) (A) (A) (A)
                 (A) (A) (A) (A) (A) (A) (A) (A) (A) (A) (A) (A)
                 (A) (A) (A) (A) (A) (A) (A) (A) (A) (A) (A) (A)
                 (A) (A) (A) (A) (A) (A) (A) (A) (A) (A) (A) (A)
                 (A) (A) (A) (A) (A) (A) (A) (A) (A) (A) (A) (A)
                 (A) (A) (A) (A) (A) (A) (A) (A) (A) (A) (A) (A)
                 (A) (A) (A) (A) (A) (A) (A) (A) (A) (A) (A) (A)
                 (A) (A) (A) (A) (A) (A) (A) (A) (A) (A) (A) (A)
                 (A) (A) (A) (A) (A) (A) (A) (A) (A) (A) (A) (A)
                 (A) (A) (A) (A) (A) (A) (A) (A) (A) (A) (A) (A)
                 (A) (A) (A) (A) (A) (A) (A) (A) (A) (A) (A) (A)
                 (A) (A) (A) (A) (A) (A) (A) (A) (A) (A) (A) (A)
                 (A) (A) (A) (A) (A) (A) (A) (A) (A) (A) (A) (A)
                 (A) (A) (A) (A) (A) (A) (A) (A) (A) (A) (A) (A)
                 (A) (A) (A) (A) (A) (A) (A) (A) (A) (A) (A) (A)
                 (A) (A) (A) (A) (A) (A) (A) (A) (A) (A) (A) (A)
                 (A) (A) (A) (A) (A) (A) (A) (A) (A) (A) (A) (A)
                 (A) (A) (A) (A) (A) (A) (A) (A) (A) (A) (A) (A)
                 (A) (A) (A) (A) (A) (A) (A) (A) (A) (A) (A) (A)
                 (A) (A) (A) (A) (A) (A) (A) (A) (A) (A) (A) (A)
                 (A) (A) (A) (A) (A) (A) (A) (A) (A) (A) (A) (A)
                 (A) (A) (A) (A) (A) (A) (A) (A) (A) (A) (A) (A)
                 (A) (A) (A) (A) (A) (A) (A) (A) (A) (A) (A) (A)
                 (A) (A) (A) (A) (A) (A) (A) (A) (A) (A) (A) (A)
                 (A) (A) (A) (A) (A) (A) (A) (A) (A) (A) (A) (A)
                 (A) (A) (A) (A) (A) (A) (A) (A) (A) (A) (A) (A)
                 (A) (A) (A) (A) (A) (A) (A) (A) (A) (A) (A) (A)
                 (A) (A) (A) (A) (A) (A) (A) (A) (A) (A) (A) (A)
                 (A) (A) (A) (A) (A) (A) (A) (A) (A) (A) (A) (A)
                 (A) (A) (A) (A) (A) (A) (A) (A) (A) (A) (A) (A)
                 (A) (A) (A) (A) (A) (A) (A) (A) (A) (A) (A) (A)
                 (A) (A) (A) (A) (A) (A) (A) (A) (A) (A) (A) (A)
                 (A) (A) (A) (A) (A) (A) (A) (A) (A) (A) (A) (A)
                 (A) (A) (A) (A) (A) (A) (A) (A) (A) (A) (A) (A)
                 (A) (A) (A) (A) (A) (A) (A) (A) (A) (A) (A) (A)
                 (A) (A) (A) (A) (A) (A) (A) (A) (A) (A) (A) (A)
                 (A) (A) (A) (A) (A) (A) (A) (A) (A) (A) (A) (A)
                 (A) (A) (A) (A) (A) (A) (A) (A) (A) (A) (A) (A)
                 (A) (A) (A) (A) (A) (A) (A) (A) (A) (A) (A) (A)
                 (A) (A) (A) (A) (A) (A) (A) (A) (A) (A) (A) (A)
                 (A) (A) (A) (A) (A) (A) (A) (A) (A) (A) (A) (A)
                 (A) (A) (A) (A) (A) (A) (A) (A) (A) (A) (A) (A)
                 (A) (A) (A) (A) (A) (A) (A) (A) (A) (A) (A) (A)
                 (A) (A) (A) (A) (A) (A) (A) (A) (A) (A) (A) (A)
                 (A) (A) (A) (A) (A) (A) (A) (A) (A) (A) (A) (A)
                 (A) (A) (A) (A) (A) (A) (A) (A) (A) (A) (A) (A)
                 (A) (A) (A) (A) (A) (A) (A) (A) (A) (A) (A) (A)
                 (A) (A) (A) (A) (A) (A) (A) (A) (A) (A) (A) (A)
                 (A) (A) (A) (A) (A) (A) (A) (A) (A) (A) (A) (A)
                 (A) (A) (A) (A) (A) (A) (A) (A) (A) (A) (A) (A)
                 (A) (A) (A) (A) (A) (A) (A) (A) (A) (A) (A) (A)
                 (A) (A) (A) (A) (A) (A) (A) (A) (A) (A) (A) (A)
                 (A) (A) (A) (A) (A) (A) (A) (A) (A) (A) (A) (A)
                 (A) (A) (A) (A) (A) (A) (A) (A) (A) (A) (A) (A)
                 (A) (A) (A) (A) (A) (A) (A) (A) (A) (A) (A) (A)
                 (A) (A) (A) (A) (A) (A) (A) (A) (A) (A) (A) (A)
                 (A) (A) (A) (A) (A) (A) (A) (A) (A) (A) (A) (A)
                 (A) (A) (A) (A) (A) (A) (A) (A) (A) (A) (A) (A)
                 (A) (A) (A) (A)
 Beta  Orbitals:
       Occupied  (A) (A) (A) (A) (A) (A) (A) (A) (A) (A) (A) (A)
                 (A) (A) (A) (A) (A) (A) (A) (A) (A) (A) (A) (A)
                 (A) (A) (A) (A) (A) (A) (A) (A) (A) (A) (A) (A)
                 (A) (A) (A) (A) (A) (A) (A) (A) (A) (A) (A) (A)
                 (A) (A) (A) (A) (A) (A) (A) (A) (A) (A) (A) (A)
                 (A) (A) (A) (A) (A) (A) (A) (A) (A) (A) (A) (A)
                 (A) (A) (A) (A) (A) (A) (A) (A) (A) (A) (A) (A)
                 (A) (A) (A) (A) (A) (A) (A) (A) (A) (A) (A) (A)
                 (A) (A) (A) (A) (A) (A) (A) (A) (A) (A) (A) (A)
                 (A) (A) (A) (A) (A) (A) (A) (A) (A) (A) (A) (A)
                 (A) (A) (A) (A) (A) (A) (A) (A) (A) (A) (A) (A)
                 (A) (A) (A) (A) (A) (A) (A) (A) (A) (A) (A) (A)
                 (A) (A) (A) (A) (A) (A) (A) (A) (A) (A) (A) (A)
                 (A) (A) (A) (A) (A) (A) (A) (A) (A) (A) (A) (A)
                 (A) (A) (A) (A) (A) (A) (A) (A) (A) (A) (A) (A)
                 (A) (A) (A) (A) (A) (A) (A) (A) (A) (A) (A) (A)
                 (A) (A) (A) (A) (A) (A) (A) (A) (A) (A)
       Virtual   (A) (A) (A) (A) (A) (A) (A) (A) (A) (A) (A) (A)
                 (A) (A) (A) (A) (A) (A) (A) (A) (A) (A) (A) (A)
                 (A) (A) (A) (A) (A) (A) (A) (A) (A) (A) (A) (A)
                 (A) (A) (A) (A) (A) (A) (A) (A) (A) (A) (A) (A)
                 (A) (A) (A) (A) (A) (A) (A) (A) (A) (A) (A) (A)
                 (A) (A) (A) (A) (A) (A) (A) (A) (A) (A) (A) (A)
                 (A) (A) (A) (A) (A) (A) (A) (A) (A) (A) (A) (A)
                 (A) (A) (A) (A) (A) (A) (A) (A) (A) (A) (A) (A)
                 (A) (A) (A) (A) (A) (A) (A) (A) (A) (A) (A) (A)
                 (A) (A) (A) (A) (A) (A) (A) (A) (A) (A) (A) (A)
                 (A) (A) (A) (A) (A) (A) (A) (A) (A) (A) (A) (A)
                 (A) (A) (A) (A) (A) (A) (A) (A) (A) (A) (A) (A)
                 (A) (A) (A) (A) (A) (A) (A) (A) (A) (A) (A) (A)
                 (A) (A) (A) (A) (A) (A) (A) (A) (A) (A) (A) (A)
                 (A) (A) (A) (A) (A) (A) (A) (A) (A) (A) (A) (A)
                 (A) (A) (A) (A) (A) (A) (A) (A) (A) (A) (A) (A)
                 (A) (A) (A) (A) (A) (A) (A) (A) (A) (A) (A) (A)
                 (A) (A) (A) (A) (A) (A) (A) (A) (A) (A) (A) (A)
                 (A) (A) (A) (A) (A) (A) (A) (A) (A) (A) (A) (A)
                 (A) (A) (A) (A) (A) (A) (A) (A) (A) (A) (A) (A)
                 (A) (A) (A) (A) (A) (A) (A) (A) (A) (A) (A) (A)
                 (A) (A) (A) (A) (A) (A) (A) (A) (A) (A) (A) (A)
                 (A) (A) (A) (A) (A) (A) (A) (A) (A) (A) (A) (A)
                 (A) (A) (A) (A) (A) (A) (A) (A) (A) (A) (A) (A)
                 (A) (A) (A) (A) (A) (A) (A) (A) (A) (A) (A) (A)
                 (A) (A) (A) (A) (A) (A) (A) (A) (A) (A) (A) (A)
                 (A) (A) (A) (A) (A) (A) (A) (A) (A) (A) (A) (A)
                 (A) (A) (A) (A) (A) (A) (A) (A) (A) (A) (A) (A)
                 (A) (A) (A) (A) (A) (A) (A) (A) (A) (A) (A) (A)
                 (A) (A) (A) (A) (A) (A) (A) (A) (A) (A) (A) (A)
                 (A) (A) (A) (A) (A) (A) (A) (A) (A) (A) (A) (A)
                 (A) (A) (A) (A) (A) (A) (A) (A) (A) (A) (A) (A)
                 (A) (A) (A) (A) (A) (A) (A) (A) (A) (A) (A) (A)
                 (A) (A) (A) (A) (A) (A) (A) (A) (A) (A) (A) (A)
                 (A) (A) (A) (A) (A) (A) (A) (A) (A) (A) (A) (A)
                 (A) (A) (A) (A) (A) (A) (A) (A) (A) (A) (A) (A)
                 (A) (A) (A) (A) (A) (A) (A) (A) (A) (A) (A) (A)
                 (A) (A) (A) (A) (A) (A) (A) (A) (A) (A) (A) (A)
                 (A) (A) (A) (A) (A) (A) (A) (A) (A) (A) (A) (A)
                 (A) (A) (A) (A) (A) (A) (A) (A) (A) (A) (A) (A)
                 (A) (A) (A) (A) (A) (A) (A) (A) (A) (A) (A) (A)
                 (A) (A) (A) (A) (A) (A) (A) (A) (A) (A) (A) (A)
                 (A) (A) (A) (A) (A) (A) (A) (A) (A) (A) (A) (A)
                 (A) (A) (A) (A) (A) (A) (A) (A) (A) (A) (A) (A)
                 (A) (A) (A) (A) (A) (A) (A) (A) (A) (A) (A) (A)
                 (A) (A) (A) (A) (A) (A) (A) (A) (A) (A) (A) (A)
                 (A) (A) (A) (A) (A) (A) (A) (A) (A) (A) (A) (A)
                 (A) (A) (A) (A) (A) (A) (A) (A) (A) (A) (A) (A)
                 (A) (A) (A) (A) (A) (A) (A) (A) (A) (A) (A) (A)
                 (A) (A) (A) (A) (A) (A) (A) (A) (A) (A) (A) (A)
                 (A) (A) (A) (A) (A) (A) (A) (A) (A) (A) (A) (A)
                 (A) (A) (A) (A) (A) (A) (A) (A) (A) (A) (A) (A)
                 (A) (A) (A) (A) (A) (A) (A) (A) (A) (A) (A) (A)
                 (A) (A) (A) (A) (A) (A) (A) (A) (A) (A) (A) (A)
                 (A) (A) (A) (A) (A) (A) (A) (A) (A) (A) (A) (A)
                 (A) (A) (A) (A) (A) (A) (A) (A) (A) (A) (A) (A)
                 (A) (A) (A) (A) (A) (A) (A) (A) (A) (A) (A) (A)
                 (A) (A) (A) (A) (A) (A) (A) (A) (A) (A) (A) (A)
                 (A) (A) (A) (A) (A) (A) (A) (A) (A) (A) (A) (A)
                 (A) (A) (A) (A) (A) (A) (A) (A) (A) (A) (A) (A)
                 (A) (A) (A) (A) (A) (A) (A) (A) (A) (A) (A) (A)
                 (A) (A) (A) (A) (A) (A) (A) (A) (A) (A) (A) (A)
                 (A) (A) (A) (A) (A) (A) (A) (A) (A) (A) (A) (A)
                 (A) (A) (A) (A) (A) (A) (A) (A) (A) (A) (A) (A)
                 (A) (A) (A) (A) (A) (A) (A) (A) (A) (A) (A) (A)
                 (A) (A) (A) (A) (A) (A) (A) (A) (A) (A) (A) (A)
                 (A) (A) (A) (A) (A) (A) (A) (A) (A) (A) (A) (A)
                 (A) (A) (A) (A) (A) (A) (A) (A) (A) (A) (A) (A)
                 (A) (A) (A) (A) (A) (A) (A) (A) (A) (A) (A) (A)
                 (A) (A) (A) (A) (A) (A) (A) (A) (A) (A) (A) (A)
                 (A) (A) (A) (A) (A) (A) (A) (A) (A) (A) (A) (A)
                 (A) (A) (A) (A) (A) (A) (A) (A) (A) (A) (A) (A)
                 (A) (A) (A) (A) (A) (A) (A) (A) (A) (A) (A) (A)
                 (A) (A) (A) (A) (A) (A) (A) (A) (A) (A) (A) (A)
                 (A) (A) (A) (A) (A) (A) (A) (A) (A) (A) (A) (A)
                 (A) (A) (A) (A) (A) (A) (A) (A) (A) (A) (A) (A)
                 (A) (A) (A) (A) (A) (A) (A) (A) (A) (A) (A) (A)
                 (A) (A) (A) (A) (A) (A) (A) (A) (A) (A) (A) (A)
                 (A) (A) (A) (A) (A) (A) (A) (A) (A) (A) (A) (A)
                 (A) (A) (A) (A) (A) (A) (A) (A) (A) (A) (A) (A)
                 (A) (A) (A) (A) (A) (A) (A) (A) (A) (A) (A) (A)
                 (A) (A) (A) (A) (A) (A) (A) (A) (A) (A) (A) (A)
                 (A) (A) (A) (A) (A) (A) (A) (A) (A) (A) (A) (A)
                 (A) (A) (A) (A) (A) (A) (A) (A) (A) (A) (A) (A)
                 (A) (A) (A) (A) (A) (A) (A) (A) (A) (A) (A) (A)
                 (A) (A) (A) (A) (A) (A) (A) (A) (A) (A) (A) (A)
                 (A) (A) (A) (A) (A) (A) (A) (A) (A) (A) (A) (A)
                 (A) (A) (A) (A) (A) (A) (A) (A) (A) (A) (A) (A)
                 (A) (A) (A) (A) (A) (A) (A) (A) (A) (A) (A) (A)
                 (A) (A) (A) (A) (A) (A) (A) (A) (A) (A) (A) (A)
                 (A) (A) (A) (A) (A) (A) (A) (A) (A) (A) (A) (A)
                 (A) (A) (A) (A) (A) (A) (A) (A) (A) (A) (A) (A)
                 (A) (A) (A) (A) (A) (A) (A) (A) (A) (A) (A) (A)
                 (A) (A) (A) (A) (A) (A) (A) (A) (A) (A) (A) (A)
                 (A) (A) (A) (A) (A) (A) (A) (A) (A) (A) (A) (A)
                 (A) (A) (A) (A) (A) (A) (A) (A) (A) (A) (A) (A)
                 (A) (A) (A) (A) (A) (A) (A) (A) (A) (A) (A) (A)
                 (A) (A) (A) (A) (A) (A) (A) (A) (A) (A) (A) (A)
                 (A) (A) (A) (A) (A) (A) (A) (A) (A) (A) (A) (A)
                 (A) (A) (A) (A) (A) (A) (A) (A) (A) (A) (A) (A)
                 (A) (A) (A) (A) (A) (A) (A) (A) (A) (A) (A) (A)
                 (A) (A) (A) (A) (A) (A) (A) (A) (A) (A) (A) (A)
                 (A) (A) (A) (A) (A) (A) (A) (A) (A) (A) (A) (A)
                 (A) (A) (A) (A) (A) (A) (A) (A) (A) (A) (A) (A)
                 (A) (A) (A) (A) (A) (A) (A) (A) (A) (A) (A) (A)
                 (A) (A) (A) (A) (A) (A) (A) (A) (A) (A) (A) (A)
                 (A) (A) (A) (A) (A) (A) (A) (A) (A) (A) (A) (A)
                 (A) (A) (A) (A) (A) (A) (A) (A) (A) (A) (A) (A)
                 (A) (A) (A) (A) (A) (A) (A) (A) (A) (A) (A) (A)
                 (A) (A) (A) (A) (A) (A) (A) (A) (A) (A) (A) (A)
                 (A) (A) (A) (A) (A) (A) (A) (A) (A) (A) (A) (A)
                 (A) (A) (A) (A) (A) (A) (A) (A) (A) (A) (A) (A)
                 (A) (A) (A) (A) (A) (A) (A) (A) (A) (A) (A) (A)
                 (A) (A) (A) (A) (A) (A) (A) (A) (A) (A) (A) (A)
                 (A) (A) (A) (A) (A) (A) (A) (A) (A) (A) (A) (A)
                 (A) (A) (A) (A) (A) (A) (A) (A) (A) (A) (A) (A)
                 (A) (A) (A) (A) (A) (A) (A) (A) (A) (A) (A) (A)
                 (A) (A) (A) (A) (A) (A) (A) (A) (A) (A) (A) (A)
                 (A) (A) (A) (A) (A) (A) (A) (A) (A) (A) (A) (A)
                 (A) (A) (A) (A) (A) (A) (A) (A) (A) (A) (A) (A)
                 (A) (A) (A) (A) (A) (A) (A) (A) (A) (A) (A) (A)
                 (A) (A) (A) (A) (A) (A) (A) (A) (A) (A) (A) (A)
                 (A) (A) (A) (A) (A) (A) (A) (A) (A) (A) (A) (A)
                 (A) (A) (A) (A) (A) (A) (A) (A) (A) (A) (A) (A)
                 (A) (A) (A) (A) (A) (A) (A) (A) (A) (A) (A) (A)
                 (A) (A) (A) (A) (A) (A) (A) (A) (A) (A) (A) (A)
                 (A) (A) (A) (A) (A) (A) (A) (A) (A) (A) (A) (A)
                 (A) (A) (A) (A) (A) (A) (A) (A) (A) (A) (A) (A)
                 (A) (A) (A) (A) (A) (A) (A) (A) (A) (A) (A) (A)
                 (A) (A) (A) (A) (A) (A) (A) (A) (A) (A) (A) (A)
                 (A) (A) (A) (A) (A) (A) (A) (A) (A) (A) (A) (A)
                 (A) (A) (A) (A) (A) (A) (A) (A) (A) (A) (A) (A)
                 (A) (A) (A) (A) (A) (A) (A) (A) (A) (A) (A) (A)
                 (A) (A) (A) (A) (A) (A) (A) (A) (A) (A) (A) (A)
                 (A) (A) (A) (A) (A) (A) (A) (A) (A) (A) (A) (A)
                 (A) (A) (A) (A) (A) (A) (A) (A) (A) (A) (A) (A)
                 (A) (A) (A) (A) (A) (A) (A) (A) (A) (A) (A) (A)
                 (A) (A) (A) (A) (A) (A) (A) (A) (A) (A) (A) (A)
                 (A) (A) (A) (A) (A) (A) (A) (A) (A) (A) (A) (A)
                 (A) (A) (A) (A) (A) (A) (A) (A) (A) (A) (A) (A)
                 (A) (A) (A) (A) (A) (A) (A) (A) (A) (A) (A) (A)
                 (A) (A) (A) (A) (A) (A) (A) (A) (A) (A) (A) (A)
                 (A) (A) (A) (A) (A) (A) (A) (A) (A) (A) (A) (A)
                 (A) (A) (A) (A) (A) (A) (A) (A) (A) (A) (A) (A)
                 (A) (A) (A) (A) (A) (A) (A) (A) (A) (A) (A) (A)
                 (A) (A) (A) (A) (A) (A) (A) (A) (A)
 The electronic state is 6-A.
 Alpha  occ. eigenvalues -- -256.51260 -89.12058 -30.31977 -26.15286 -26.13298
 Alpha  occ. eigenvalues --  -26.13239 -19.34611 -19.33427 -19.25933 -19.23533
 Alpha  occ. eigenvalues --  -14.55281 -14.49639 -14.49077 -14.49049 -14.48887
 Alpha  occ. eigenvalues --  -14.48639 -10.43650 -10.41358 -10.39122 -10.36389
 Alpha  occ. eigenvalues --  -10.36015 -10.36012 -10.35882 -10.35868 -10.35809
 Alpha  occ. eigenvalues --  -10.35744 -10.35686 -10.35633 -10.34244 -10.34054
 Alpha  occ. eigenvalues --  -10.34034 -10.33426 -10.33116 -10.33108 -10.32990
 Alpha  occ. eigenvalues --  -10.32824 -10.32772 -10.32769 -10.32685 -10.32651
 Alpha  occ. eigenvalues --  -10.32590 -10.32589 -10.32462 -10.32406 -10.32391
 Alpha  occ. eigenvalues --  -10.32283 -10.32132 -10.31889 -10.31819 -10.30759
 Alpha  occ. eigenvalues --  -10.30709 -10.30614 -10.30593 -10.30475 -10.29172
 Alpha  occ. eigenvalues --  -10.28438 -10.28047  -8.10280  -6.03889  -6.03618
 Alpha  occ. eigenvalues --   -6.03146  -3.71418  -2.51093  -2.45361  -2.45301
 Alpha  occ. eigenvalues --   -1.24252  -1.23220  -1.17290  -1.10622  -1.09485
 Alpha  occ. eigenvalues --   -1.08550  -1.08545  -1.08241  -1.07041  -1.01997
 Alpha  occ. eigenvalues --   -0.95457  -0.95265  -0.93723  -0.93546  -0.93173
 Alpha  occ. eigenvalues --   -0.92666  -0.92329  -0.91882  -0.91546  -0.89236
 Alpha  occ. eigenvalues --   -0.88730  -0.88416  -0.87764  -0.87087  -0.86946
 Alpha  occ. eigenvalues --   -0.84595  -0.82702  -0.82102  -0.81784  -0.81499
 Alpha  occ. eigenvalues --   -0.79819  -0.78423  -0.77649  -0.77370  -0.76817
 Alpha  occ. eigenvalues --   -0.76278  -0.75770  -0.74926  -0.74354  -0.72943
 Alpha  occ. eigenvalues --   -0.72268  -0.71759  -0.70687  -0.70304  -0.69405
 Alpha  occ. eigenvalues --   -0.67343  -0.66831  -0.65734  -0.65482  -0.64316
 Alpha  occ. eigenvalues --   -0.63164  -0.62885  -0.62698  -0.62171  -0.61430
 Alpha  occ. eigenvalues --   -0.60392  -0.59810  -0.59215  -0.59157  -0.58808
 Alpha  occ. eigenvalues --   -0.58718  -0.58663  -0.57811  -0.57518  -0.56901
 Alpha  occ. eigenvalues --   -0.56435  -0.56065  -0.55751  -0.55685  -0.55384
 Alpha  occ. eigenvalues --   -0.55308  -0.54951  -0.54901  -0.54677  -0.54541
 Alpha  occ. eigenvalues --   -0.54457  -0.54244  -0.54127  -0.53846  -0.53542
 Alpha  occ. eigenvalues --   -0.53241  -0.52953  -0.52918  -0.52809  -0.52635
 Alpha  occ. eigenvalues --   -0.52312  -0.52120  -0.51869  -0.51682  -0.51532
 Alpha  occ. eigenvalues --   -0.51181  -0.51140  -0.50840  -0.50628  -0.50312
 Alpha  occ. eigenvalues --   -0.50212  -0.49811  -0.49595  -0.49344  -0.49014
 Alpha  occ. eigenvalues --   -0.48751  -0.48688  -0.48619  -0.48246  -0.48153
 Alpha  occ. eigenvalues --   -0.48011  -0.47718  -0.47565  -0.47546  -0.46930
 Alpha  occ. eigenvalues --   -0.46715  -0.46397  -0.46131  -0.45991  -0.44915
 Alpha  occ. eigenvalues --   -0.44860  -0.44389  -0.43937  -0.43801  -0.43726
 Alpha  occ. eigenvalues --   -0.43529  -0.43135  -0.42967  -0.42206  -0.40798
 Alpha  occ. eigenvalues --   -0.40733  -0.39420  -0.39273  -0.38441  -0.36661
 Alpha  occ. eigenvalues --   -0.36109  -0.35750  -0.35551  -0.35099  -0.34417
 Alpha  occ. eigenvalues --   -0.33922  -0.32552  -0.30954  -0.30818  -0.30373
 Alpha  occ. eigenvalues --   -0.28885  -0.28078
 Alpha virt. eigenvalues --   -0.18719  -0.18580  -0.17968  -0.11703  -0.08825
 Alpha virt. eigenvalues --   -0.08017  -0.07821  -0.06822  -0.06330  -0.05939
 Alpha virt. eigenvalues --   -0.05614  -0.05365  -0.05238  -0.05127  -0.04274
 Alpha virt. eigenvalues --   -0.03991  -0.03465  -0.03124  -0.03086  -0.02675
 Alpha virt. eigenvalues --   -0.02427  -0.02253  -0.02092  -0.01544  -0.01388
 Alpha virt. eigenvalues --   -0.01265  -0.01078  -0.00706  -0.00089   0.00212
 Alpha virt. eigenvalues --    0.00404   0.00710   0.00999   0.01502   0.01787
 Alpha virt. eigenvalues --    0.02047   0.02328   0.02464   0.02576   0.02628
 Alpha virt. eigenvalues --    0.02874   0.03092   0.03309   0.03527   0.03577
 Alpha virt. eigenvalues --    0.03718   0.03811   0.03897   0.04085   0.04363
 Alpha virt. eigenvalues --    0.04400   0.04866   0.04973   0.04995   0.05234
 Alpha virt. eigenvalues --    0.05414   0.05561   0.05705   0.06009   0.06293
 Alpha virt. eigenvalues --    0.06538   0.06742   0.06967   0.07089   0.07222
 Alpha virt. eigenvalues --    0.07283   0.07911   0.08042   0.08192   0.08350
 Alpha virt. eigenvalues --    0.08538   0.08632   0.08697   0.08764   0.09039
 Alpha virt. eigenvalues --    0.09555   0.09800   0.09877   0.10114   0.10275
 Alpha virt. eigenvalues --    0.10502   0.10625   0.10805   0.11291   0.11423
 Alpha virt. eigenvalues --    0.11525   0.11713   0.11938   0.12155   0.12297
 Alpha virt. eigenvalues --    0.12591   0.12763   0.13129   0.13258   0.13372
 Alpha virt. eigenvalues --    0.13463   0.13739   0.14034   0.14237   0.14318
 Alpha virt. eigenvalues --    0.14502   0.14758   0.15058   0.15147   0.15466
 Alpha virt. eigenvalues --    0.15659   0.15738   0.15871   0.15992   0.16368
 Alpha virt. eigenvalues --    0.16694   0.16809   0.17174   0.17223   0.17283
 Alpha virt. eigenvalues --    0.17532   0.17885   0.17968   0.18141   0.18411
 Alpha virt. eigenvalues --    0.18647   0.18747   0.18873   0.19221   0.19471
 Alpha virt. eigenvalues --    0.19663   0.19818   0.20140   0.20394   0.20459
 Alpha virt. eigenvalues --    0.20887   0.21191   0.21322   0.21416   0.21582
 Alpha virt. eigenvalues --    0.21917   0.22007   0.22100   0.22498   0.22729
 Alpha virt. eigenvalues --    0.23011   0.23452   0.23689   0.23920   0.24204
 Alpha virt. eigenvalues --    0.24297   0.24534   0.24629   0.24760   0.25173
 Alpha virt. eigenvalues --    0.25484   0.25692   0.25784   0.26087   0.26199
 Alpha virt. eigenvalues --    0.26469   0.26481   0.26888   0.27319   0.27530
 Alpha virt. eigenvalues --    0.27573   0.27948   0.28011   0.28173   0.28539
 Alpha virt. eigenvalues --    0.28778   0.28899   0.28985   0.29417   0.29437
 Alpha virt. eigenvalues --    0.29582   0.29925   0.30217   0.30360   0.30473
 Alpha virt. eigenvalues --    0.30656   0.30908   0.31088   0.31136   0.31465
 Alpha virt. eigenvalues --    0.31564   0.31823   0.32004   0.32218   0.32364
 Alpha virt. eigenvalues --    0.32467   0.32806   0.33009   0.33126   0.33330
 Alpha virt. eigenvalues --    0.33569   0.33621   0.33950   0.34064   0.34233
 Alpha virt. eigenvalues --    0.34337   0.34516   0.34658   0.34906   0.35012
 Alpha virt. eigenvalues --    0.35386   0.35555   0.35642   0.35832   0.35899
 Alpha virt. eigenvalues --    0.36062   0.36221   0.36551   0.36693   0.36914
 Alpha virt. eigenvalues --    0.36969   0.37166   0.37364   0.37678   0.37806
 Alpha virt. eigenvalues --    0.37982   0.38072   0.38096   0.38385   0.38539
 Alpha virt. eigenvalues --    0.38967   0.39047   0.39359   0.39394   0.39480
 Alpha virt. eigenvalues --    0.39599   0.39855   0.40021   0.40141   0.40470
 Alpha virt. eigenvalues --    0.40674   0.40736   0.40975   0.41041   0.41333
 Alpha virt. eigenvalues --    0.41446   0.41651   0.41752   0.41998   0.42152
 Alpha virt. eigenvalues --    0.42327   0.42361   0.42490   0.42642   0.42784
 Alpha virt. eigenvalues --    0.43072   0.43500   0.43578   0.43810   0.43951
 Alpha virt. eigenvalues --    0.44268   0.44432   0.44564   0.44634   0.44799
 Alpha virt. eigenvalues --    0.44944   0.45131   0.45191   0.45362   0.45400
 Alpha virt. eigenvalues --    0.45613   0.45791   0.45995   0.46234   0.46691
 Alpha virt. eigenvalues --    0.46930   0.47052   0.47091   0.47307   0.47602
 Alpha virt. eigenvalues --    0.47690   0.48141   0.48390   0.48563   0.48662
 Alpha virt. eigenvalues --    0.48705   0.49030   0.49076   0.49460   0.49586
 Alpha virt. eigenvalues --    0.50043   0.50146   0.50377   0.50415   0.50674
 Alpha virt. eigenvalues --    0.50909   0.50925   0.51074   0.51534   0.51882
 Alpha virt. eigenvalues --    0.51942   0.52230   0.52616   0.52857   0.53172
 Alpha virt. eigenvalues --    0.53257   0.53708   0.53822   0.53908   0.54302
 Alpha virt. eigenvalues --    0.54655   0.54707   0.55114   0.55237   0.55634
 Alpha virt. eigenvalues --    0.55776   0.55979   0.56125   0.56686   0.56851
 Alpha virt. eigenvalues --    0.56968   0.57053   0.57306   0.57382   0.57876
 Alpha virt. eigenvalues --    0.58146   0.58361   0.58742   0.59096   0.59413
 Alpha virt. eigenvalues --    0.59678   0.59721   0.60076   0.60312   0.60707
 Alpha virt. eigenvalues --    0.60812   0.61042   0.61271   0.61423   0.62063
 Alpha virt. eigenvalues --    0.62186   0.62389   0.62578   0.63279   0.63600
 Alpha virt. eigenvalues --    0.63742   0.64004   0.64274   0.64406   0.64611
 Alpha virt. eigenvalues --    0.64828   0.65107   0.65517   0.65933   0.66019
 Alpha virt. eigenvalues --    0.66232   0.66542   0.66825   0.67155   0.67452
 Alpha virt. eigenvalues --    0.67902   0.68195   0.68737   0.68830   0.69175
 Alpha virt. eigenvalues --    0.69326   0.69478   0.70096   0.70394   0.70684
 Alpha virt. eigenvalues --    0.70764   0.71002   0.71553   0.71777   0.72143
 Alpha virt. eigenvalues --    0.72287   0.72502   0.73196   0.73554   0.73884
 Alpha virt. eigenvalues --    0.74037   0.74207   0.74294   0.74561   0.75036
 Alpha virt. eigenvalues --    0.75141   0.75449   0.75570   0.76074   0.76208
 Alpha virt. eigenvalues --    0.76580   0.76918   0.77134   0.77339   0.77561
 Alpha virt. eigenvalues --    0.78032   0.78133   0.78709   0.79001   0.79587
 Alpha virt. eigenvalues --    0.79667   0.79742   0.80231   0.80358   0.80463
 Alpha virt. eigenvalues --    0.81136   0.81448   0.81495   0.81763   0.82073
 Alpha virt. eigenvalues --    0.82217   0.82664   0.82961   0.83104   0.83191
 Alpha virt. eigenvalues --    0.83317   0.83435   0.83856   0.84244   0.84354
 Alpha virt. eigenvalues --    0.84532   0.84990   0.85151   0.85212   0.85382
 Alpha virt. eigenvalues --    0.85815   0.86122   0.86384   0.86816   0.87241
 Alpha virt. eigenvalues --    0.87566   0.87832   0.87929   0.88101   0.88431
 Alpha virt. eigenvalues --    0.88683   0.88826   0.89084   0.89390   0.89562
 Alpha virt. eigenvalues --    0.89894   0.90210   0.90290   0.90603   0.90909
 Alpha virt. eigenvalues --    0.91187   0.91471   0.91907   0.92320   0.92598
 Alpha virt. eigenvalues --    0.92754   0.92843   0.93139   0.93335   0.93640
 Alpha virt. eigenvalues --    0.93650   0.94140   0.94378   0.94632   0.94904
 Alpha virt. eigenvalues --    0.95491   0.95632   0.95920   0.96185   0.96502
 Alpha virt. eigenvalues --    0.96715   0.97089   0.97264   0.97653   0.97937
 Alpha virt. eigenvalues --    0.98107   0.98652   0.98863   0.99082   0.99538
 Alpha virt. eigenvalues --    0.99846   0.99951   1.00183   1.00725   1.00922
 Alpha virt. eigenvalues --    1.01007   1.01606   1.02094   1.02336   1.02463
 Alpha virt. eigenvalues --    1.03070   1.03507   1.03801   1.04174   1.04487
 Alpha virt. eigenvalues --    1.04717   1.04784   1.05336   1.05653   1.06092
 Alpha virt. eigenvalues --    1.06482   1.06665   1.06835   1.07331   1.07622
 Alpha virt. eigenvalues --    1.07898   1.08651   1.08920   1.09137   1.09432
 Alpha virt. eigenvalues --    1.09791   1.10047   1.10390   1.11119   1.11196
 Alpha virt. eigenvalues --    1.11649   1.11837   1.12296   1.12513   1.13091
 Alpha virt. eigenvalues --    1.13265   1.13452   1.13886   1.14152   1.14303
 Alpha virt. eigenvalues --    1.14606   1.15092   1.15379   1.15708   1.15836
 Alpha virt. eigenvalues --    1.16070   1.16561   1.16810   1.17544   1.17715
 Alpha virt. eigenvalues --    1.17938   1.18036   1.18496   1.18665   1.19166
 Alpha virt. eigenvalues --    1.19458   1.20020   1.20145   1.20614   1.20712
 Alpha virt. eigenvalues --    1.20827   1.21199   1.21809   1.22299   1.22601
 Alpha virt. eigenvalues --    1.22988   1.23416   1.23471   1.23937   1.24418
 Alpha virt. eigenvalues --    1.24621   1.25159   1.25214   1.25600   1.25818
 Alpha virt. eigenvalues --    1.26227   1.26640   1.27442   1.27892   1.27953
 Alpha virt. eigenvalues --    1.28490   1.28557   1.29450   1.29803   1.30576
 Alpha virt. eigenvalues --    1.30690   1.31128   1.31669   1.31878   1.31986
 Alpha virt. eigenvalues --    1.32433   1.32677   1.33017   1.33598   1.34437
 Alpha virt. eigenvalues --    1.34948   1.35205   1.35414   1.35962   1.36463
 Alpha virt. eigenvalues --    1.36763   1.36871   1.37126   1.37558   1.38241
 Alpha virt. eigenvalues --    1.38381   1.38655   1.38967   1.39144   1.39547
 Alpha virt. eigenvalues --    1.39844   1.40064   1.40178   1.40420   1.40712
 Alpha virt. eigenvalues --    1.41367   1.41974   1.42092   1.42375   1.42521
 Alpha virt. eigenvalues --    1.42631   1.42982   1.43413   1.43820   1.44001
 Alpha virt. eigenvalues --    1.44298   1.44586   1.45032   1.45119   1.45468
 Alpha virt. eigenvalues --    1.45641   1.45809   1.46078   1.46326   1.46541
 Alpha virt. eigenvalues --    1.46625   1.46985   1.47310   1.47608   1.47860
 Alpha virt. eigenvalues --    1.47983   1.48342   1.48723   1.48940   1.49089
 Alpha virt. eigenvalues --    1.49267   1.49421   1.49788   1.49884   1.50095
 Alpha virt. eigenvalues --    1.50213   1.50444   1.50667   1.51004   1.51029
 Alpha virt. eigenvalues --    1.51485   1.51944   1.52174   1.52280   1.52518
 Alpha virt. eigenvalues --    1.52615   1.53283   1.53443   1.53569   1.53778
 Alpha virt. eigenvalues --    1.53986   1.54323   1.54463   1.54660   1.54853
 Alpha virt. eigenvalues --    1.55215   1.55597   1.55641   1.55967   1.56353
 Alpha virt. eigenvalues --    1.56498   1.56710   1.57490   1.57510   1.57693
 Alpha virt. eigenvalues --    1.57857   1.58017   1.58202   1.58467   1.58747
 Alpha virt. eigenvalues --    1.58883   1.59221   1.59604   1.59696   1.60086
 Alpha virt. eigenvalues --    1.60454   1.60703   1.60796   1.61042   1.61336
 Alpha virt. eigenvalues --    1.61488   1.61909   1.62320   1.62553   1.62837
 Alpha virt. eigenvalues --    1.63292   1.63428   1.63610   1.63891   1.63919
 Alpha virt. eigenvalues --    1.64225   1.64584   1.64953   1.65440   1.65672
 Alpha virt. eigenvalues --    1.66249   1.66445   1.66624   1.66729   1.67023
 Alpha virt. eigenvalues --    1.67788   1.67911   1.68339   1.68475   1.68960
 Alpha virt. eigenvalues --    1.69266   1.69800   1.70325   1.70889   1.71191
 Alpha virt. eigenvalues --    1.71848   1.72074   1.72385   1.72740   1.73145
 Alpha virt. eigenvalues --    1.73520   1.73727   1.74456   1.75182   1.75423
 Alpha virt. eigenvalues --    1.75779   1.76031   1.76276   1.76647   1.77081
 Alpha virt. eigenvalues --    1.77489   1.77700   1.77829   1.78126   1.78737
 Alpha virt. eigenvalues --    1.79138   1.79257   1.79581   1.80092   1.80158
 Alpha virt. eigenvalues --    1.80441   1.80991   1.81178   1.81462   1.81813
 Alpha virt. eigenvalues --    1.82240   1.82455   1.83076   1.83095   1.83706
 Alpha virt. eigenvalues --    1.84063   1.84343   1.84776   1.85130   1.85279
 Alpha virt. eigenvalues --    1.85609   1.85744   1.85894   1.86450   1.87042
 Alpha virt. eigenvalues --    1.87337   1.87800   1.87962   1.88602   1.88891
 Alpha virt. eigenvalues --    1.89119   1.89324   1.89712   1.89762   1.89880
 Alpha virt. eigenvalues --    1.90517   1.90872   1.91002   1.91401   1.91611
 Alpha virt. eigenvalues --    1.92266   1.92436   1.92886   1.92970   1.93470
 Alpha virt. eigenvalues --    1.94065   1.94366   1.94821   1.94988   1.95264
 Alpha virt. eigenvalues --    1.95672   1.96236   1.96779   1.96913   1.97674
 Alpha virt. eigenvalues --    1.97743   1.98210   1.98645   1.98990   1.99151
 Alpha virt. eigenvalues --    1.99643   1.99911   2.00208   2.00625   2.00952
 Alpha virt. eigenvalues --    2.01185   2.01677   2.01831   2.02112   2.02281
 Alpha virt. eigenvalues --    2.02716   2.02976   2.03532   2.03732   2.03942
 Alpha virt. eigenvalues --    2.04067   2.04534   2.05090   2.05239   2.05539
 Alpha virt. eigenvalues --    2.05871   2.06348   2.06510   2.06652   2.06958
 Alpha virt. eigenvalues --    2.07541   2.07730   2.07882   2.08479   2.08896
 Alpha virt. eigenvalues --    2.09149   2.09460   2.09882   2.10113   2.10261
 Alpha virt. eigenvalues --    2.10564   2.10980   2.11173   2.11324   2.12077
 Alpha virt. eigenvalues --    2.12363   2.12401   2.12947   2.13488   2.13591
 Alpha virt. eigenvalues --    2.13791   2.14173   2.14410   2.14804   2.15032
 Alpha virt. eigenvalues --    2.15310   2.15875   2.16305   2.16708   2.17159
 Alpha virt. eigenvalues --    2.17374   2.18080   2.18247   2.18655   2.19112
 Alpha virt. eigenvalues --    2.19315   2.19757   2.20272   2.20641   2.21094
 Alpha virt. eigenvalues --    2.21288   2.21879   2.21905   2.22607   2.22946
 Alpha virt. eigenvalues --    2.23394   2.23949   2.24026   2.24359   2.25516
 Alpha virt. eigenvalues --    2.25661   2.25825   2.25942   2.26475   2.26868
 Alpha virt. eigenvalues --    2.26958   2.27353   2.27893   2.28211   2.28345
 Alpha virt. eigenvalues --    2.28549   2.28642   2.29033   2.29355   2.29830
 Alpha virt. eigenvalues --    2.30027   2.30348   2.30443   2.31001   2.31582
 Alpha virt. eigenvalues --    2.31890   2.31984   2.32324   2.32425   2.32762
 Alpha virt. eigenvalues --    2.32822   2.33386   2.33445   2.33654   2.34119
 Alpha virt. eigenvalues --    2.34512   2.34786   2.35377   2.35667   2.35799
 Alpha virt. eigenvalues --    2.36237   2.36539   2.36651   2.37473   2.37848
 Alpha virt. eigenvalues --    2.37982   2.38451   2.39017   2.39156   2.39662
 Alpha virt. eigenvalues --    2.39768   2.40227   2.40958   2.41390   2.41536
 Alpha virt. eigenvalues --    2.41725   2.42232   2.42446   2.42588   2.42728
 Alpha virt. eigenvalues --    2.43028   2.43619   2.44176   2.44372   2.44837
 Alpha virt. eigenvalues --    2.45370   2.45561   2.45652   2.45782   2.45943
 Alpha virt. eigenvalues --    2.46542   2.46909   2.47300   2.48164   2.48181
 Alpha virt. eigenvalues --    2.48393   2.48572   2.48868   2.49372   2.49642
 Alpha virt. eigenvalues --    2.49807   2.50069   2.50537   2.50915   2.51039
 Alpha virt. eigenvalues --    2.51149   2.51353   2.51803   2.51882   2.52417
 Alpha virt. eigenvalues --    2.52463   2.52756   2.52903   2.53663   2.54110
 Alpha virt. eigenvalues --    2.54286   2.54478   2.54830   2.55195   2.55661
 Alpha virt. eigenvalues --    2.55725   2.56028   2.56416   2.56549   2.56730
 Alpha virt. eigenvalues --    2.57295   2.57566   2.57925   2.58222   2.58406
 Alpha virt. eigenvalues --    2.58661   2.58816   2.59057   2.59481   2.59658
 Alpha virt. eigenvalues --    2.60077   2.60680   2.60822   2.60948   2.61275
 Alpha virt. eigenvalues --    2.61416   2.61912   2.62151   2.62348   2.62597
 Alpha virt. eigenvalues --    2.62822   2.63221   2.63420   2.63692   2.64177
 Alpha virt. eigenvalues --    2.64491   2.64739   2.65055   2.65364   2.65702
 Alpha virt. eigenvalues --    2.65971   2.66129   2.66805   2.66936   2.67183
 Alpha virt. eigenvalues --    2.67315   2.67803   2.68308   2.68816   2.69256
 Alpha virt. eigenvalues --    2.69316   2.69438   2.69724   2.70174   2.70620
 Alpha virt. eigenvalues --    2.70894   2.71167   2.71471   2.71703   2.71988
 Alpha virt. eigenvalues --    2.72608   2.72951   2.73100   2.73560   2.73744
 Alpha virt. eigenvalues --    2.74048   2.74446   2.74764   2.74840   2.75306
 Alpha virt. eigenvalues --    2.75636   2.76038   2.76250   2.76572   2.76749
 Alpha virt. eigenvalues --    2.77125   2.77558   2.77831   2.78426   2.78586
 Alpha virt. eigenvalues --    2.79154   2.79592   2.79755   2.80306   2.80864
 Alpha virt. eigenvalues --    2.81211   2.81315   2.81986   2.82194   2.82528
 Alpha virt. eigenvalues --    2.82765   2.83155   2.83319   2.83415   2.84081
 Alpha virt. eigenvalues --    2.84117   2.84794   2.84812   2.85166   2.85312
 Alpha virt. eigenvalues --    2.85824   2.86027   2.86290   2.86568   2.87108
 Alpha virt. eigenvalues --    2.87215   2.87688   2.88050   2.88139   2.88438
 Alpha virt. eigenvalues --    2.88697   2.88966   2.89202   2.89560   2.90067
 Alpha virt. eigenvalues --    2.90554   2.90834   2.91042   2.91641   2.91848
 Alpha virt. eigenvalues --    2.92145   2.92423   2.92709   2.92771   2.93156
 Alpha virt. eigenvalues --    2.93244   2.93563   2.93881   2.94405   2.94666
 Alpha virt. eigenvalues --    2.94996   2.95105   2.95784   2.96332   2.96409
 Alpha virt. eigenvalues --    2.96583   2.97036   2.97244   2.97390   2.97694
 Alpha virt. eigenvalues --    2.98053   2.98307   2.98368   2.98598   2.98985
 Alpha virt. eigenvalues --    2.99743   2.99913   2.99946   3.00391   3.00601
 Alpha virt. eigenvalues --    3.01068   3.01426   3.01636   3.01708   3.01873
 Alpha virt. eigenvalues --    3.02245   3.02488   3.02756   3.03258   3.03579
 Alpha virt. eigenvalues --    3.03691   3.03800   3.04192   3.04409   3.04632
 Alpha virt. eigenvalues --    3.05090   3.05609   3.05809   3.05923   3.06335
 Alpha virt. eigenvalues --    3.06559   3.06738   3.06975   3.07233   3.07537
 Alpha virt. eigenvalues --    3.07736   3.08016   3.08345   3.08623   3.08777
 Alpha virt. eigenvalues --    3.08822   3.09041   3.09424   3.09983   3.10086
 Alpha virt. eigenvalues --    3.10329   3.10388   3.11102   3.11303   3.11662
 Alpha virt. eigenvalues --    3.11829   3.12227   3.12429   3.12721   3.12763
 Alpha virt. eigenvalues --    3.13246   3.13465   3.13506   3.13717   3.13922
 Alpha virt. eigenvalues --    3.14014   3.14609   3.14627   3.15198   3.15360
 Alpha virt. eigenvalues --    3.15510   3.15833   3.16015   3.16262   3.16635
 Alpha virt. eigenvalues --    3.16725   3.16907   3.17139   3.17245   3.17704
 Alpha virt. eigenvalues --    3.17765   3.18148   3.18339   3.18541   3.18712
 Alpha virt. eigenvalues --    3.18974   3.19127   3.19668   3.20049   3.20259
 Alpha virt. eigenvalues --    3.20477   3.20807   3.20972   3.21448   3.21779
 Alpha virt. eigenvalues --    3.21896   3.22170   3.22381   3.22661   3.22780
 Alpha virt. eigenvalues --    3.23109   3.23243   3.23467   3.23959   3.24178
 Alpha virt. eigenvalues --    3.24410   3.24532   3.25044   3.25362   3.25685
 Alpha virt. eigenvalues --    3.25779   3.26199   3.26375   3.26561   3.26701
 Alpha virt. eigenvalues --    3.26940   3.27303   3.27359   3.27892   3.27967
 Alpha virt. eigenvalues --    3.28235   3.28602   3.28706   3.28993   3.29320
 Alpha virt. eigenvalues --    3.29377   3.29502   3.30026   3.30299   3.30406
 Alpha virt. eigenvalues --    3.30857   3.30984   3.31286   3.31374   3.31702
 Alpha virt. eigenvalues --    3.32040   3.32565   3.32774   3.33115   3.33348
 Alpha virt. eigenvalues --    3.33437   3.33943   3.34120   3.34291   3.34422
 Alpha virt. eigenvalues --    3.34712   3.35025   3.35390   3.35615   3.35921
 Alpha virt. eigenvalues --    3.36194   3.36591   3.36771   3.36814   3.37066
 Alpha virt. eigenvalues --    3.37218   3.37535   3.38013   3.38373   3.38722
 Alpha virt. eigenvalues --    3.38836   3.39540   3.39616   3.39777   3.39969
 Alpha virt. eigenvalues --    3.40203   3.40526   3.41090   3.41350   3.41967
 Alpha virt. eigenvalues --    3.42267   3.42552   3.42958   3.43127   3.43232
 Alpha virt. eigenvalues --    3.43676   3.43975   3.44177   3.44578   3.44893
 Alpha virt. eigenvalues --    3.45258   3.45515   3.45800   3.45980   3.46325
 Alpha virt. eigenvalues --    3.46864   3.47186   3.47467   3.47846   3.48227
 Alpha virt. eigenvalues --    3.48507   3.48775   3.49187   3.49424   3.49906
 Alpha virt. eigenvalues --    3.50065   3.50408   3.50750   3.51360   3.51673
 Alpha virt. eigenvalues --    3.51785   3.52053   3.52589   3.52827   3.53259
 Alpha virt. eigenvalues --    3.53737   3.54037   3.54482   3.54602   3.54875
 Alpha virt. eigenvalues --    3.55516   3.56258   3.56615   3.56718   3.56937
 Alpha virt. eigenvalues --    3.57410   3.57561   3.57971   3.58115   3.58299
 Alpha virt. eigenvalues --    3.59121   3.59438   3.59540   3.60048   3.60278
 Alpha virt. eigenvalues --    3.60355   3.60880   3.61205   3.61501   3.61932
 Alpha virt. eigenvalues --    3.62511   3.62905   3.63026   3.63457   3.63573
 Alpha virt. eigenvalues --    3.63880   3.64268   3.64569   3.64808   3.65182
 Alpha virt. eigenvalues --    3.65407   3.66019   3.66294   3.66548   3.67273
 Alpha virt. eigenvalues --    3.67710   3.67851   3.68104   3.68569   3.69204
 Alpha virt. eigenvalues --    3.69556   3.69819   3.70224   3.70966   3.71463
 Alpha virt. eigenvalues --    3.72098   3.72665   3.73090   3.73432   3.73687
 Alpha virt. eigenvalues --    3.74673   3.75115   3.75291   3.75959   3.76255
 Alpha virt. eigenvalues --    3.76437   3.76903   3.77385   3.77531   3.78404
 Alpha virt. eigenvalues --    3.78520   3.79147   3.79461   3.80115   3.80296
 Alpha virt. eigenvalues --    3.80427   3.80761   3.81609   3.82342   3.82604
 Alpha virt. eigenvalues --    3.82998   3.83256   3.84180   3.84451   3.84775
 Alpha virt. eigenvalues --    3.85235   3.86090   3.86188   3.86485   3.87220
 Alpha virt. eigenvalues --    3.87346   3.87903   3.88406   3.88575   3.89066
 Alpha virt. eigenvalues --    3.89857   3.90183   3.90604   3.91451   3.91751
 Alpha virt. eigenvalues --    3.91820   3.91987   3.93033   3.93556   3.93863
 Alpha virt. eigenvalues --    3.94328   3.94894   3.95001   3.95449   3.96226
 Alpha virt. eigenvalues --    3.97105   3.97479   3.98245   3.98887   3.99097
 Alpha virt. eigenvalues --    3.99930   4.00597   4.00814   4.01074   4.01383
 Alpha virt. eigenvalues --    4.02167   4.02671   4.03497   4.04190   4.05347
 Alpha virt. eigenvalues --    4.05425   4.05689   4.06474   4.06763   4.07822
 Alpha virt. eigenvalues --    4.07918   4.08265   4.08376   4.08759   4.08940
 Alpha virt. eigenvalues --    4.10149   4.10918   4.11216   4.11910   4.12235
 Alpha virt. eigenvalues --    4.12851   4.13219   4.13473   4.13805   4.14287
 Alpha virt. eigenvalues --    4.14787   4.15178   4.15799   4.16123   4.16517
 Alpha virt. eigenvalues --    4.16589   4.16782   4.17495   4.18610   4.18746
 Alpha virt. eigenvalues --    4.18846   4.19781   4.19980   4.20850   4.21468
 Alpha virt. eigenvalues --    4.22431   4.23016   4.23101   4.23476   4.23919
 Alpha virt. eigenvalues --    4.24588   4.25036   4.25581   4.26178   4.26487
 Alpha virt. eigenvalues --    4.27221   4.27641   4.27931   4.28678   4.28818
 Alpha virt. eigenvalues --    4.29281   4.29579   4.29871   4.30337   4.30844
 Alpha virt. eigenvalues --    4.31412   4.31765   4.32177   4.32402   4.33272
 Alpha virt. eigenvalues --    4.33505   4.34579   4.34685   4.35348   4.35794
 Alpha virt. eigenvalues --    4.36176   4.36817   4.36892   4.37871   4.39143
 Alpha virt. eigenvalues --    4.39309   4.39906   4.40442   4.41080   4.41524
 Alpha virt. eigenvalues --    4.42085   4.42525   4.42869   4.43866   4.44919
 Alpha virt. eigenvalues --    4.45148   4.45621   4.46106   4.46776   4.47035
 Alpha virt. eigenvalues --    4.47918   4.48254   4.49097   4.50221   4.50573
 Alpha virt. eigenvalues --    4.50880   4.51919   4.52520   4.52862   4.53361
 Alpha virt. eigenvalues --    4.54126   4.54189   4.54675   4.55425   4.55859
 Alpha virt. eigenvalues --    4.57271   4.57658   4.58156   4.58523   4.58849
 Alpha virt. eigenvalues --    4.59907   4.60085   4.60689   4.60890   4.61770
 Alpha virt. eigenvalues --    4.61945   4.62197   4.62634   4.63932   4.64568
 Alpha virt. eigenvalues --    4.64632   4.65761   4.65969   4.66940   4.67713
 Alpha virt. eigenvalues --    4.67879   4.68890   4.69726   4.70416   4.71126
 Alpha virt. eigenvalues --    4.71858   4.72562   4.72983   4.73809   4.74513
 Alpha virt. eigenvalues --    4.74720   4.75782   4.76283   4.77227   4.78078
 Alpha virt. eigenvalues --    4.78489   4.79565   4.80163   4.80900   4.81235
 Alpha virt. eigenvalues --    4.82408   4.82712   4.83640   4.84014   4.84502
 Alpha virt. eigenvalues --    4.84890   4.85464   4.85845   4.85921   4.86808
 Alpha virt. eigenvalues --    4.87794   4.88170   4.89838   4.90685   4.91551
 Alpha virt. eigenvalues --    4.91883   4.92177   4.92690   4.93287   4.94254
 Alpha virt. eigenvalues --    4.94564   4.95413   4.96706   4.97128   5.00453
 Alpha virt. eigenvalues --    5.00825   5.01637   5.02268   5.03365   5.04496
 Alpha virt. eigenvalues --    5.06088   5.07274   5.08115   5.09162   5.10365
 Alpha virt. eigenvalues --    5.11423   5.11633   5.11818   5.12794   5.13273
 Alpha virt. eigenvalues --    5.14545   5.14716   5.15762   5.15871   5.16399
 Alpha virt. eigenvalues --    5.16437   5.17094   5.17616   5.18610   5.19169
 Alpha virt. eigenvalues --    5.22647   5.23884   5.24281   5.25123   5.26114
 Alpha virt. eigenvalues --    5.26651   5.27561   5.28642   5.29588   5.30628
 Alpha virt. eigenvalues --    5.31163   5.31670   5.33552   5.33916   5.34925
 Alpha virt. eigenvalues --    5.35610   5.35916   5.37154   5.38115   5.38937
 Alpha virt. eigenvalues --    5.39946   5.41403   5.42389   5.45505   5.47543
 Alpha virt. eigenvalues --    5.47791   5.48409   5.48721   5.50436   5.51070
 Alpha virt. eigenvalues --    5.52478   5.52867   5.53190   5.53718   5.55642
 Alpha virt. eigenvalues --    5.57472   5.57676   5.58085   5.59347   5.62066
 Alpha virt. eigenvalues --    5.64589   5.65666   5.68369   5.72027   5.73828
 Alpha virt. eigenvalues --    5.76526   5.77117   5.78373   5.83404   5.83686
 Alpha virt. eigenvalues --    5.86115   5.87064   5.89011   5.89275   5.90250
 Alpha virt. eigenvalues --    5.90536   5.91506   5.92821   5.93699   5.96606
 Alpha virt. eigenvalues --    5.96885   5.99043   6.01636   6.01843   6.05945
 Alpha virt. eigenvalues --    6.06369   6.08083   6.09646   6.10731   6.15162
 Alpha virt. eigenvalues --    6.15410   6.17426   6.20266   6.22278   6.28000
 Alpha virt. eigenvalues --    6.30194   6.30228   6.37253   6.37532   6.40496
 Alpha virt. eigenvalues --    6.41073   6.45818   6.48162   6.61801   6.67288
 Alpha virt. eigenvalues --    6.68116   6.69041   6.77376   6.80423   6.83240
 Alpha virt. eigenvalues --    6.86110   6.86846   6.89341   7.03295   7.06683
 Alpha virt. eigenvalues --    7.08011   7.11804   7.19091   7.24924   9.15599
 Alpha virt. eigenvalues --    9.44657   9.60495  20.29911  22.31249  22.31626
 Alpha virt. eigenvalues --   22.37963  22.43428  22.44014  22.46712  22.47220
 Alpha virt. eigenvalues --   22.48609  22.50793  22.54260  22.55057  22.59926
 Alpha virt. eigenvalues --   22.61533  22.63218  22.72744  22.77434  22.83831
 Alpha virt. eigenvalues --   22.84671  22.85980  22.86823  22.91378  22.92977
 Alpha virt. eigenvalues --   23.00273  23.00632  23.04198  23.09892  23.13970
 Alpha virt. eigenvalues --   23.17888  23.21041  23.23274  23.23671  23.34824
 Alpha virt. eigenvalues --   23.35394  23.40696  23.44927  23.45510  23.51587
 Alpha virt. eigenvalues --   23.58159  23.63858  23.67920  23.76452  32.37601
 Alpha virt. eigenvalues --   32.72980  32.89154  32.95991  32.98942  33.08781
 Alpha virt. eigenvalues --   43.86140  43.87289  43.87854  43.94870
  Beta  occ. eigenvalues -- -256.51163 -89.11958 -30.25720 -26.09113 -26.08985
  Beta  occ. eigenvalues --  -26.07955 -19.34611 -19.33427 -19.25933 -19.23533
  Beta  occ. eigenvalues --  -14.55265 -14.49356 -14.49139 -14.49058 -14.48919
  Beta  occ. eigenvalues --  -14.48683 -10.43650 -10.41357 -10.39100 -10.36380
  Beta  occ. eigenvalues --  -10.36043 -10.35953 -10.35882 -10.35859 -10.35792
  Beta  occ. eigenvalues --  -10.35768 -10.35664 -10.35554 -10.34212 -10.34028
  Beta  occ. eigenvalues --  -10.34024 -10.33403 -10.33105 -10.32973 -10.32969
  Beta  occ. eigenvalues --  -10.32883 -10.32840 -10.32769 -10.32684 -10.32623
  Beta  occ. eigenvalues --  -10.32574 -10.32562 -10.32464 -10.32409 -10.32369
  Beta  occ. eigenvalues --  -10.32283 -10.31887 -10.30761 -10.30717 -10.30701
  Beta  occ. eigenvalues --  -10.30610 -10.30595 -10.30487 -10.30428 -10.29172
  Beta  occ. eigenvalues --  -10.28527 -10.28138  -8.10168  -6.03817  -6.03490
  Beta  occ. eigenvalues --   -6.02938  -3.56381  -2.32494  -2.32253  -2.28590
  Beta  occ. eigenvalues --   -1.24252  -1.23220  -1.17140  -1.10622  -1.09445
  Beta  occ. eigenvalues --   -1.08549  -1.08532  -1.08196  -1.07017  -1.01699
  Beta  occ. eigenvalues --   -0.95231  -0.95113  -0.93299  -0.92845  -0.92511
  Beta  occ. eigenvalues --   -0.92214  -0.92149  -0.91761  -0.91502  -0.88828
  Beta  occ. eigenvalues --   -0.88307  -0.87694  -0.87597  -0.86992  -0.86890
  Beta  occ. eigenvalues --   -0.84532  -0.82631  -0.82087  -0.81753  -0.81473
  Beta  occ. eigenvalues --   -0.79796  -0.78420  -0.77512  -0.77292  -0.76752
  Beta  occ. eigenvalues --   -0.76236  -0.75490  -0.74910  -0.74336  -0.72870
  Beta  occ. eigenvalues --   -0.70919  -0.70493  -0.70194  -0.70035  -0.69347
  Beta  occ. eigenvalues --   -0.67216  -0.66710  -0.65409  -0.64713  -0.63864
  Beta  occ. eigenvalues --   -0.63042  -0.62740  -0.62576  -0.62076  -0.61300
  Beta  occ. eigenvalues --   -0.60104  -0.59652  -0.59120  -0.58927  -0.58636
  Beta  occ. eigenvalues --   -0.58422  -0.58377  -0.57598  -0.57205  -0.56463
  Beta  occ. eigenvalues --   -0.56122  -0.55706  -0.55451  -0.55277  -0.55233
  Beta  occ. eigenvalues --   -0.55131  -0.54728  -0.54456  -0.54324  -0.54103
  Beta  occ. eigenvalues --   -0.53838  -0.53692  -0.53352  -0.53212  -0.53082
  Beta  occ. eigenvalues --   -0.52887  -0.52625  -0.52365  -0.52210  -0.52123
  Beta  occ. eigenvalues --   -0.51838  -0.51713  -0.51453  -0.51348  -0.51176
  Beta  occ. eigenvalues --   -0.50739  -0.50381  -0.50294  -0.50066  -0.49887
  Beta  occ. eigenvalues --   -0.49610  -0.49340  -0.48982  -0.48841  -0.48465
  Beta  occ. eigenvalues --   -0.48169  -0.48148  -0.47964  -0.47634  -0.47533
  Beta  occ. eigenvalues --   -0.47331  -0.47159  -0.46473  -0.46214  -0.46018
  Beta  occ. eigenvalues --   -0.45644  -0.45467  -0.44591  -0.44157  -0.43890
  Beta  occ. eigenvalues --   -0.43684  -0.43539  -0.43510  -0.43244  -0.43055
  Beta  occ. eigenvalues --   -0.42176  -0.41194  -0.40790  -0.39322  -0.39156
  Beta  occ. eigenvalues --   -0.38439  -0.37159  -0.36649  -0.36043  -0.35553
  Beta  occ. eigenvalues --   -0.35152  -0.34600  -0.33974  -0.33687  -0.32585
  Beta  occ. eigenvalues --   -0.30365  -0.30184
  Beta virt. eigenvalues --   -0.20038  -0.19603  -0.16026  -0.15723  -0.13714
  Beta virt. eigenvalues --   -0.12783  -0.11003  -0.10654  -0.09722  -0.08410
  Beta virt. eigenvalues --   -0.08004  -0.07741  -0.06726  -0.06056  -0.05720
  Beta virt. eigenvalues --   -0.05490  -0.05213  -0.05047  -0.04812  -0.03949
  Beta virt. eigenvalues --   -0.03437  -0.03144  -0.03022  -0.02861  -0.02546
  Beta virt. eigenvalues --   -0.02177  -0.01950  -0.01903  -0.01356  -0.01286
  Beta virt. eigenvalues --   -0.01051  -0.00846  -0.00449   0.00031   0.00339
  Beta virt. eigenvalues --    0.00613   0.00916   0.01263   0.01580   0.01972
  Beta virt. eigenvalues --    0.02192   0.02463   0.02622   0.02719   0.02949
  Beta virt. eigenvalues --    0.03044   0.03316   0.03412   0.03714   0.03747
  Beta virt. eigenvalues --    0.03886   0.03985   0.04112   0.04317   0.04527
  Beta virt. eigenvalues --    0.04620   0.04991   0.05025   0.05168   0.05412
  Beta virt. eigenvalues --    0.05594   0.05734   0.05837   0.06171   0.06466
  Beta virt. eigenvalues --    0.06714   0.06899   0.07114   0.07302   0.07349
  Beta virt. eigenvalues --    0.07399   0.08044   0.08152   0.08266   0.08526
  Beta virt. eigenvalues --    0.08612   0.08791   0.08952   0.08968   0.09182
  Beta virt. eigenvalues --    0.09725   0.09924   0.10005   0.10276   0.10463
  Beta virt. eigenvalues --    0.10618   0.10843   0.11020   0.11524   0.11590
  Beta virt. eigenvalues --    0.11669   0.11955   0.12075   0.12358   0.12477
  Beta virt. eigenvalues --    0.12802   0.12891   0.13347   0.13439   0.13459
  Beta virt. eigenvalues --    0.13659   0.13859   0.14210   0.14384   0.14464
  Beta virt. eigenvalues --    0.14682   0.15017   0.15192   0.15315   0.15634
  Beta virt. eigenvalues --    0.15779   0.15837   0.16193   0.16402   0.16682
  Beta virt. eigenvalues --    0.16873   0.17099   0.17394   0.17556   0.17578
  Beta virt. eigenvalues --    0.17812   0.18013   0.18210   0.18444   0.18636
  Beta virt. eigenvalues --    0.18751   0.19004   0.19109   0.19410   0.19881
  Beta virt. eigenvalues --    0.19917   0.20083   0.20495   0.20580   0.20787
  Beta virt. eigenvalues --    0.21058   0.21373   0.21461   0.21690   0.21960
  Beta virt. eigenvalues --    0.22233   0.22393   0.22449   0.22992   0.23211
  Beta virt. eigenvalues --    0.23657   0.23820   0.24005   0.24265   0.24550
  Beta virt. eigenvalues --    0.24566   0.24717   0.24951   0.24980   0.25418
  Beta virt. eigenvalues --    0.25684   0.25940   0.26110   0.26355   0.26493
  Beta virt. eigenvalues --    0.26547   0.26835   0.27027   0.27439   0.27722
  Beta virt. eigenvalues --    0.27814   0.28043   0.28226   0.28319   0.28768
  Beta virt. eigenvalues --    0.28967   0.29094   0.29362   0.29652   0.29794
  Beta virt. eigenvalues --    0.29914   0.30270   0.30430   0.30486   0.30724
  Beta virt. eigenvalues --    0.30810   0.31126   0.31271   0.31371   0.31658
  Beta virt. eigenvalues --    0.31916   0.32031   0.32319   0.32465   0.32504
  Beta virt. eigenvalues --    0.32725   0.33029   0.33128   0.33320   0.33482
  Beta virt. eigenvalues --    0.33865   0.33892   0.34160   0.34246   0.34369
  Beta virt. eigenvalues --    0.34607   0.34669   0.34937   0.35053   0.35286
  Beta virt. eigenvalues --    0.35687   0.35714   0.35847   0.35954   0.36054
  Beta virt. eigenvalues --    0.36292   0.36521   0.36638   0.36842   0.37137
  Beta virt. eigenvalues --    0.37170   0.37368   0.37506   0.37840   0.37948
  Beta virt. eigenvalues --    0.38104   0.38179   0.38263   0.38579   0.38658
  Beta virt. eigenvalues --    0.39119   0.39266   0.39435   0.39453   0.39621
  Beta virt. eigenvalues --    0.39829   0.39975   0.40174   0.40385   0.40713
  Beta virt. eigenvalues --    0.40770   0.40900   0.41094   0.41201   0.41414
  Beta virt. eigenvalues --    0.41627   0.41836   0.41923   0.42108   0.42330
  Beta virt. eigenvalues --    0.42529   0.42626   0.42665   0.42869   0.43010
  Beta virt. eigenvalues --    0.43339   0.43612   0.43866   0.44032   0.44184
  Beta virt. eigenvalues --    0.44483   0.44672   0.44784   0.44881   0.45046
  Beta virt. eigenvalues --    0.45096   0.45298   0.45373   0.45648   0.45708
  Beta virt. eigenvalues --    0.45944   0.46127   0.46211   0.46477   0.47016
  Beta virt. eigenvalues --    0.47121   0.47244   0.47305   0.47479   0.47857
  Beta virt. eigenvalues --    0.47998   0.48481   0.48671   0.48765   0.48825
  Beta virt. eigenvalues --    0.48912   0.49159   0.49192   0.49528   0.49729
  Beta virt. eigenvalues --    0.50214   0.50488   0.50563   0.50677   0.50902
  Beta virt. eigenvalues --    0.51052   0.51188   0.51349   0.51668   0.51980
  Beta virt. eigenvalues --    0.52073   0.52380   0.52845   0.53031   0.53466
  Beta virt. eigenvalues --    0.53602   0.53860   0.53974   0.54229   0.54503
  Beta virt. eigenvalues --    0.54812   0.54896   0.55337   0.55402   0.55834
  Beta virt. eigenvalues --    0.56044   0.56291   0.56379   0.56941   0.57094
  Beta virt. eigenvalues --    0.57192   0.57308   0.57574   0.57704   0.58107
  Beta virt. eigenvalues --    0.58280   0.58489   0.58910   0.59231   0.59538
  Beta virt. eigenvalues --    0.59856   0.59946   0.60298   0.60469   0.60840
  Beta virt. eigenvalues --    0.61005   0.61253   0.61437   0.61759   0.62207
  Beta virt. eigenvalues --    0.62395   0.62551   0.62896   0.63516   0.63714
  Beta virt. eigenvalues --    0.64047   0.64180   0.64425   0.64529   0.64785
  Beta virt. eigenvalues --    0.65121   0.65469   0.65713   0.66077   0.66185
  Beta virt. eigenvalues --    0.66390   0.66758   0.67017   0.67346   0.67613
[...]
  1734. RY*(   2) H  83                  0.00013     2.06660   
  1735. RY*(   3) H  83                  0.00013     2.16404   
  1736. RY*(   4) H  83                  0.00005     3.00266   
  1737. RY*(   5) H  83                  0.00000     3.12410   
  1738. RY*(   1) H  84                  0.00030     0.95871   
  1739. RY*(   2) H  84                  0.00009     1.67646   
  1740. RY*(   3) H  84                  0.00003     2.03995   
  1741. RY*(   4) H  84                  0.00003     1.98723   
  1742. RY*(   5) H  84                  0.00000     2.86256   
  1743. RY*(   1) H  85                  0.00028     1.08605   
  1744. RY*(   2) H  85                  0.00008     1.78739   
  1745. RY*(   3) H  85                  0.00003     1.73808   
  1746. RY*(   4) H  85                  0.00003     2.00433   
  1747. RY*(   5) H  85                  0.00000     2.93171   
  1748. RY*(   1) H  86                  0.00030     0.99460   
  1749. RY*(   2) H  86                  0.00009     1.66357   
  1750. RY*(   3) H  86                  0.00003     1.98635   
  1751. RY*(   4) H  86                  0.00003     2.01519   
  1752. RY*(   5) H  86                  0.00000     2.87921   
  1753. RY*(   1) H  87                  0.00030     1.71975   
  1754. RY*(   2) H  87                  0.00008     2.59509   
  1755. RY*(   3) H  87                  0.00006     2.25822   
  1756. RY*(   4) H  87                  0.00003     1.38800   
  1757. RY*(   5) H  87                  0.00001     2.78578   
  1758. RY*(   1) H  88                  0.00038     1.58813   
  1759. RY*(   2) H  88                  0.00008     2.64242   
  1760. RY*(   3) H  88                  0.00006     2.37526   
  1761. RY*(   4) H  88                  0.00004     1.28593   
  1762. RY*(   5) H  88                  0.00000     2.86629   
  1763. RY*(   1) H  89                  0.00046     0.97620   
  1764. RY*(   2) H  89                  0.00007     1.70750   
  1765. RY*(   3) H  89                  0.00006     2.38005   
  1766. RY*(   4) H  89                  0.00003     2.08589   
  1767. RY*(   5) H  89                  0.00001     2.91581   
  1768. RY*(   1) H  90                  0.00035     1.49851   
  1769. RY*(   2) H  90                  0.00008     2.00577   
  1770. RY*(   3) H  90                  0.00005     2.26569   
  1771. RY*(   4) H  90                  0.00003     1.73490   
  1772. RY*(   5) H  90                  0.00001     2.97587   
  1773. RY*(   1) H  91                  0.00041     1.06107   
  1774. RY*(   2) H  91                  0.00033     1.79554   
  1775. RY*(   3) H  91                  0.00018     2.00020   
  1776. RY*(   4) H  91                  0.00012     1.89056   
  1777. RY*(   5) H  91                  0.00000     3.23429   
  1778. RY*(   1) H  92                  0.00033     1.95957   
  1779. RY*(   2) H  92                  0.00025     1.73437   
  1780. RY*(   3) H  92                  0.00015     2.05385   
  1781. RY*(   4) H  92                  0.00011     1.57255   
  1782. RY*(   5) H  92                  0.00000     3.21396   
  1783. RY*(   1) H  93                  0.00039     1.30446   
  1784. RY*(   2) H  93                  0.00008     2.14395   
  1785. RY*(   3) H  93                  0.00005     1.70438   
  1786. RY*(   4) H  93                  0.00002     2.70838   
  1787. RY*(   5) H  93                  0.00002     2.58171   
  1788. RY*(   1) H  94                  0.00038     1.11194   
  1789. RY*(   2) H  94                  0.00007     1.50902   
  1790. RY*(   3) H  94                  0.00006     2.37511   
  1791. RY*(   4) H  94                  0.00004     2.38943   
  1792. RY*(   5) H  94                  0.00001     2.94565   
  1793. RY*(   1) H  95                  0.00046     1.53245   
  1794. RY*(   2) H  95                  0.00009     2.40481   
  1795. RY*(   3) H  95                  0.00007     2.14773   
  1796. RY*(   4) H  95                  0.00005     1.74455   
  1797. RY*(   5) H  95                  0.00000     2.90192   
  1798. RY*(   1) H  96                  0.00073     0.54122   
  1799. RY*(   2) H  96                  0.00009     2.14846   
  1800. RY*(   3) H  96                  0.00008     2.59426   
  1801. RY*(   4) H  96                  0.00005     2.33207   
  1802. RY*(   5) H  96                  0.00001     2.99959   
  1803. RY*(   1) H  97                  0.00140     0.55788   
  1804. RY*(   2) H  97                  0.00014     2.16843   
  1805. RY*(   3) H  97                  0.00013     2.17517   
  1806. RY*(   4) H  97                  0.00005     3.02686   
  1807. RY*(   5) H  97                  0.00000     3.19361   
  1808. RY*(   1) H  98                  0.00022     1.51102   
  1809. RY*(   2) H  98                  0.00004     1.15136   
  1810. RY*(   3) H  98                  0.00004     2.39761   
  1811. RY*(   4) H  98                  0.00005     2.14619   
  1812. RY*(   5) H  98                  0.00000     3.01119   
  1813. RY*(   1) H  99                  0.00035     0.91000   
  1814. RY*(   2) H  99                  0.00010     1.61241   
  1815. RY*(   3) H  99                  0.00005     2.19523   
  1816. RY*(   4) H  99                  0.00003     2.30723   
  1817. RY*(   5) H  99                  0.00001     3.01584   
  1818. RY*(   1) H 100                  0.00029     1.21366   
  1819. RY*(   2) H 100                  0.00009     1.33423   
  1820. RY*(   3) H 100                  0.00004     2.12772   
  1821. RY*(   4) H 100                  0.00003     2.32456   
  1822. RY*(   5) H 100                  0.00001     2.99742   
  1823. RY*(   1) H 101                  0.00083     0.63376   
  1824. RY*(   2) H 101                  0.00014     1.76882   
  1825. RY*(   3) H 101                  0.00011     1.30698   
  1826. RY*(   4) H 101                  0.00005     3.00940   
  1827. RY*(   5) H 101                  0.00000     3.70210   
  1828. BD*(   1) C   1 - C   2          0.00679     0.29282   
  1829. BD*(   1) C   1 - H  54          0.00178     0.30893   
  1830. BD*(   1) C   1 - H  55          0.00517     0.30440   
  1831. BD*(   1) C   1 - H  56          0.00354     0.30148   
  1832. BD*(   1) C   2 - N   3          0.01410     0.32406   
  1833. BD*(   2) C   2 - N   3          0.37712    -0.14753  1838(v),189(v),1830(v)
                                                    235(g),1831(v),260(g),291(v)
                                                    240(g)
  1834. BD*(   1) C   2 - C   4          0.00985     0.48460   
  1835. BD*(   1) N   3 - C   5          0.00964     0.38802   
  1836. BD*(   1) N   3 - H  58          0.00716     0.28606   
  1837. BD*(   1) C   4 - N   6          0.00863     0.37145   
  1838. BD*(   2) C   4 - N   6          0.33305    -0.11922  1833(v),189(v),193(v),286(g)
                                                    192(v),313(v),340(g)
  1839. BD*(   1) C   4 - H  57          0.00646     0.32528   
  1840. BD*(   1) C   5 - N   6          0.00891     0.42362   
  1841. BD*(   1) C   5 - H  59          0.00805     0.28306   
  1842. BD*(   1) N   6 -Fe  11          0.03331     0.27029   
  1843. BD*(   1) C   7 - C   8          0.00410     0.28157   
  1844. BD*(   1) C   7 - H  63          0.00478     0.33983   
  1845. BD*(   1) C   7 - H  64          0.00320     0.32464   
  1846. BD*(   1) C   7 - H  65          0.00463     0.32226   
  1847. BD*(   1) C   8 - S   9          0.01693     0.12328   
  1848. BD*(   1) C   8 - H  66          0.01237     0.29963   
  1849. BD*(   1) C   8 - H  67          0.00805     0.29958   
  1850. BD*(   1) S   9 - C  10          0.01062     0.08976   
  1851. BD*(   1) S   9 -Fe  11          0.02721     0.29788   
  1852. BD*(   1) C  10 - H  60          0.00365     0.31337   
  1853. BD*(   1) C  10 - H  61          0.00584     0.30027   
  1854. BD*(   1) C  10 - H  62          0.00617     0.29492   
  1855. BD*(   1)Fe  11 - N  16          0.03113     0.30505   
  1856. BD*(   1)Fe  11 - N  27          0.02618     0.29872   
  1857. BD*(   1)Fe  11 - N  35          0.02712     0.28511   
  1858. BD*(   1)Fe  11 - N  43          0.02727     0.29358   
  1859. BD*(   1) C  12 - C  17          0.01045     0.49126   
  1860. BD*(   2) C  12 - C  17          0.19442    -0.05761  1878(v),203(v),1864(r)
                                                    497(g),1869(r),631(g)
  1861. BD*(   1) C  12 - C  47          0.01130     0.49320   
  1862. BD*(   1) C  12 - H  97          0.00774     0.33575   
  1863. BD*(   1) C  13 - C  20          0.00994     0.48326   
  1864. BD*(   2) C  13 - C  20          0.19305    -0.05713  1896(v),1878(v),1860(r)
                                                    709(g),524(g)
  1865. BD*(   1) C  13 - C  28          0.01023     0.47178   
  1866. BD*(   1) C  13 - H  83          0.00696     0.34411   
  1867. BD*(   1) C  14 - C  31          0.01039     0.47945   
  1868. BD*(   1) C  14 - C  36          0.01003     0.48535   
  1869. BD*(   2) C  14 - C  36          0.19532    -0.05733  1917(v),1914(v),200(v)
                                                    1860(r),1125(g),549(g)
                                                    550(g)
  1870. BD*(   1) C  14 - H  79          0.00676     0.34543   
  1871. BD*(   1) C  15 - C  39          0.01025     0.49543   
  1872. BD*(   1) C  15 - C  44          0.01112     0.49484   
  1873. BD*(   1) C  15 - H 101          0.00715     0.34849   
  1874. BD*(   1) N  16 - C  17          0.01543     0.37612   
  1875. BD*(   1) N  16 - C  20          0.01487     0.38493   
  1876. BD*(   1) C  17 - C  18          0.01663     0.39022   
  1877. BD*(   1) C  18 - C  19          0.00961     0.52373   
  1878. BD*(   2) C  18 - C  19          0.11105    -0.03013  1864(v),1860(v),1885(v)
                                                    1882(v),1884(v)
  1879. BD*(   1) C  18 - C  22          0.01147     0.26486   
  1880. BD*(   1) C  19 - C  20          0.01674     0.38411   
  1881. BD*(   1) C  19 - C  21          0.00888     0.26728   
  1882. BD*(   1) C  21 - H  84          0.00351     0.31672   
  1883. BD*(   1) C  21 - H  85          0.00232     0.32474   
  1884. BD*(   1) C  21 - H  86          0.00345     0.31901   
  1885. BD*(   1) C  22 - C  23          0.00640     0.24440   
  1886. BD*(   1) C  22 - H  87          0.00518     0.32810   
  1887. BD*(   1) C  22 - H  88          0.00621     0.32474   
  1888. BD*(   1) C  23 - C  24          0.03955     0.25620   
  1889. BD*(   1) C  23 - H  89          0.00639     0.29124   
  1890. BD*(   1) C  23 - H  90          0.00627     0.29564   
  1891. BD*(   1) C  24 - O  25          0.02986     0.40559   
  1892. BD*(   2) C  24 - O  25          0.09614    -0.02744   
  1893. BD*(   1) C  24 - O  26          0.03604     0.38294   
  1894. BD*(   1) O  26 - H  91          0.00629     0.29467   
  1895. BD*(   1) N  27 - C  28          0.01512     0.37424   
  1896. BD*(   2) N  27 - C  28          0.33336    -0.11060  1864(v),1900(v),200(v)
                                                    193(v),915(g),889(g),192(v)
  1897. BD*(   1) N  27 - C  31          0.01565     0.37954   
  1898. BD*(   1) C  28 - C  29          0.01688     0.38736   
  1899. BD*(   1) C  29 - C  30          0.00904     0.53056   
  1900. BD*(   2) C  29 - C  30          0.11514    -0.02775  1896(v),200(v),201(v)
                                                    1904(v),1908(v),1907(v)
                                                    1906(v)
  1901. BD*(   1) C  29 - C  32          0.00884     0.26488   
  1902. BD*(   1) C  30 - C  31          0.01530     0.39834   
  1903. BD*(   1) C  30 - C  33          0.01436     0.30228   
  1904. BD*(   1) C  32 - H  80          0.00356     0.32069   
  1905. BD*(   1) C  32 - H  81          0.00222     0.32300   
  1906. BD*(   1) C  32 - H  82          0.00305     0.32381   
  1907. BD*(   1) C  33 - C  34          0.00327     0.49725   
  1908. BD*(   1) C  33 - H  71          0.00892     0.36045   
  1909. BD*(   1) C  34 - H  68          0.00198     0.32330   
  1910. BD*(   1) C  34 - H  69          0.00387     0.32442   
  1911. BD*(   1) C  34 - H  70          0.00540     0.32332   
  1912. BD*(   1) N  35 - C  36          0.01523     0.37610   
  1913. BD*(   1) N  35 - C  39          0.01489     0.39476   
  1914. BD*(   2) N  35 - C  39          0.31066    -0.09866  1869(v),1917(v),192(v)
                                                    1200(g),1930(r),1097(g)
                                                    193(v)
  1915. BD*(   1) C  36 - C  37          0.01704     0.39310   
  1916. BD*(   1) C  37 - C  38          0.00937     0.52818   
  1917. BD*(   2) C  37 - C  38          0.10954    -0.02167  1869(v),1914(v),202(v)
                                                    1922(v),1923(v),1925(v)
  1918. BD*(   1) C  37 - C  40          0.00908     0.26403   
  1919. BD*(   1) C  38 - C  39          0.01502     0.39666   
  1920. BD*(   1) C  38 - C  41          0.01572     0.30515   
  1921. BD*(   1) C  40 - H  76          0.00246     0.32575   
  1922. BD*(   1) C  40 - H  77          0.00338     0.32229   
  1923. BD*(   1) C  40 - H  78          0.00256     0.32525   
  1924. BD*(   1) C  41 - C  42          0.00352     0.52923   
  1925. BD*(   1) C  41 - H  75          0.00867     0.36390   
  1926. BD*(   1) C  42 - H  72          0.00453     0.32808   
  1927. BD*(   1) C  42 - H  73          0.00244     0.32554   
  1928. BD*(   1) C  42 - H  74          0.00416     0.32457   
  1929. BD*(   1) N  43 - C  44          0.01593     0.39794   
  1930. BD*(   2) N  43 - C  44          0.34585    -0.10525  1934(v),203(v),193(v)
                                                    1330(g),1914(r),192(v)
                                                    1304(g),576(v),1950(r)
                                                    1844(r)
  1931. BD*(   1) N  43 - C  47          0.01591     0.37884   
  1932. BD*(   1) C  44 - C  45          0.01577     0.39426   
  1933. BD*(   1) C  45 - C  46          0.01268     0.33378   
  1934. BD*(   2) C  45 - C  46          0.14447    -0.07027  1930(v),203(v),1941(v)
                                                    1939(v),1940(v)
  1935. BD*(   1) C  45 - C  48          0.00638     0.28467   
  1936. BD*(   1) C  46 - C  47          0.01537     0.39970   
  1937. BD*(   1) C  46 - C  49          0.01016     0.27988   
  1938. BD*(   1) C  48 - H  98          0.00265     0.32275   
  1939. BD*(   1) C  48 - H  99          0.00417     0.32119   
  1940. BD*(   1) C  48 - H 100          0.00392     0.31996   
  1941. BD*(   1) C  49 - C  50          0.00719     0.25821   
  1942. BD*(   1) C  49 - H  95          0.00750     0.30774   
  1943. BD*(   1) C  49 - H  96          0.00711     0.32422   
  1944. BD*(   1) C  50 - C  51          0.03686     0.28581   
  1945. BD*(   1) C  50 - H  93          0.00720     0.31086   
  1946. BD*(   1) C  50 - H  94          0.00565     0.32789   
  1947. BD*(   1) C  51 - O  52          0.01710     0.47020   
  1948. BD*(   2) C  51 - O  52          0.11361    -0.04214  1947(g),1941(v),1512(g)
                                                    1521(g)
  1949. BD*(   1) C  51 - O  53          0.03725     0.88852   
  1950. BD*(   1) O  53 - H  92          0.00562     4.08496   
       -------------------------------
              Total Lewis  196.52533  ( 97.2898%)
        Valence non-Lewis    5.09419  (  2.5219%)
        Rydberg non-Lewis    0.38048  (  0.1884%)
       -------------------------------
            Total unit  1  202.00000  (100.0000%)
           Charge unit  1    3.00000
 1\1\GINC-NODE388\SP\UPBE1PBE\def2TZVP\C41H48Fe1N6O4S1(1+,6)\ZHARTOVSKA
 \21-Feb-2023\0\\# PBE1PBE/def2TZVP empiricaldispersion=GD3BJ scf=maxcy
 cle=999 geom=check pop=nbo\\2ce0_III_H\\1,6\C,0,3.129,43.032001,9.118\
 C,0,1.868,43.118999,8.322\N,0,0.821,42.243,8.505\C,0,1.498,43.953999,7
 .325\C,0,-0.145,42.541,7.649\N,0,0.246,43.563999,6.905\C,0,-4.421,46.0
 51998,4.498\C,0,-3.158,46.528999,3.845\S,0,-1.989,45.251999,3.656\C,0,
 -0.978,45.750999,2.271\Fe,0,-0.796,44.398998,5.398\C,0,-2.981,41.81600
 2,5.156\C,0,1.359,42.792999,3.29\C,0,1.179,47.182999,5.304\C,0,-2.686,
 45.830002,7.849\N,0,-0.812,42.647999,4.396\C,0,-1.805,41.693001,4.471\
 C,0,-1.402,40.542,3.702\C,0,-0.199,40.821999,3.166\C,0,0.187,42.147999
 ,3.598\C,0,0.669,39.923,2.262\C,0,-2.244,39.243,3.594\C,0,-2.013,38.43
 3998,4.89\C,0,-2.937,37.243999,5.074\O,0,-3.965,37.154999,4.362\O,0,-2
 .67,36.370998,5.955\N,0,0.947,44.882999,4.491\C,0,1.707,44.073002,3.67
 3\C,0,2.888,44.797001,3.259\C,0,2.813,46.014999,3.812\C,0,1.608,46.085
 999,4.592\C,0,3.978,44.203999,2.337\C,0,3.809,47.18,3.639\C,0,4.003,47
 .707001,2.397\N,0,-0.773,46.168999,6.389\C,0,0.132,47.192001,6.189\C,0
 ,-0.148,48.237999,7.131\C,0,-1.209,47.856998,7.847\C,0,-1.621,46.55400
 1,7.392\C,0,0.67,49.546001,7.247\C,0,-1.891,48.624001,8.997\C,0,-2.329
 ,49.888,8.858\N,0,-2.532,43.910999,6.343\C,0,-3.176,44.685001,7.288\C,
 0,-4.458,44.120998,7.604\C,0,-4.542,42.891998,6.757\C,0,-3.319,42.8219
 99,6.016\C,0,-5.505,44.655998,8.574\C,0,-5.733,41.931,6.71\C,0,-6.646,
 42.365002,5.56\C,0,-7.816,41.424,5.435\O,0,-8.941,41.839001,5.799\O,0,
 -7.605,40.273998,4.973\H,0,3.89841926,43.59277462,8.62971018\H,0,2.961
 76316,43.43251599,10.09601819\H,0,3.43009121,42.00839439,9.19845863\H,
 0,2.07229992,44.76791853,6.93434081\H,0,0.79438889,41.50176912,9.17572
 247\H,0,-1.08616166,42.03788724,7.57159017\H,0,-0.0559105,45.20847086,
 2.28872499\H,0,-1.49626488,45.54375797,1.35811848\H,0,-0.77608769,46.7
 9974218,2.33633889\H,0,-4.25028536,45.91186518,5.54495716\H,0,-5.19246
 041,46.77985979,4.35669869\H,0,-4.72137288,45.12394085,4.05824318\H,0,
 -2.72966825,47.3049142,4.44448938\H,0,-3.39549254,46.92687114,2.880533
 8\H,0,3.4481434,48.61727382,2.30514394\H,0,5.04412221,47.90787717,2.25
 342666\H,0,3.66902419,47.00954726,1.65746066\H,0,4.3403097,47.56910042
 ,4.48233319\H,0,-3.02108093,50.11391748,9.64214621\H,0,-1.49874754,50.
 56094518,8.91020771\H,0,-2.81563366,49.99474417,7.91106106\H,0,-2.0205
 3181,48.1335325,9.93910517\H,0,1.6001253,49.4319812,6.73050565\H,0,0.1
 1704172,50.35223613,6.81211835\H,0,0.85858351,49.7584346,8.27860468\H,
 0,1.70496398,48.10278021,5.15478732\H,0,4.84900554,43.97617213,2.91522
 509\H,0,3.60995628,43.30973009,1.87904046\H,0,4.22948091,44.91564886,1
 .57857279\H,0,2.06872946,42.25366009,2.69814053\H,0,1.59189139,39.7041
 5158,2.75725432\H,0,0.14755698,39.01075391,2.05999939\H,0,0.86972419,4
 0.43041649,1.34159883\H,0,-1.92525836,38.67212648,2.74700107\H,0,-3.28
 104972,39.48847865,3.49824979\H,0,-1.00344714,38.0794518,4.89005661\H,
 0,-2.14063138,39.0914623,5.72447643\H,0,-1.75621791,36.16385985,6.1640
 3608\H,0,-6.70484702,39.96439451,4.84862038\H,0,-6.08962855,42.3605146
 5,4.64603574\H,0,-7.0068373,43.35437719,5.74929654\H,0,-5.386234,40.93
 315698,6.53981585\H,0,-6.26992166,41.97480529,7.63449783\H,0,-3.709819
 15,41.04758697,5.00348447\H,0,-5.11506155,45.51268913,9.08285\H,0,-6.3
 8492412,44.93303573,8.03188964\H,0,-5.74999283,43.89783122,9.288186\H,
 0,-3.18085816,46.19281164,8.72557548\\Version=ES64L-G16RevA.03\State=6
 -A\HF=-3880.3793638\S2=8.819351\S2-1=0.\S2A=8.7511\RMSD=1.099e-09\Dipo
 le=5.3639986,1.2198537,1.3452947\Quadrupole=-33.6510665,23.2363337,10.
 4147328,-23.8582929,-5.7516943,-6.4615849\PG=C01 [X(C41H48Fe1N6O4S1)]\
 \@


 CHRISTMAS IS ON TOP OF A STEEP HILL.
 THE CLOSER YOU GET, THE STEEPER THE HILL IS.
          -- LINUS, OF PEANUTS
 Job cpu time:      10 days  4 hours 53 minutes 11.4 seconds.
 Elapsed time:       2 days 13 hours 33 minutes 28.0 seconds.
 File lengths (MBytes):  RWF=   3495 Int=      0 D2E=      0 Chk=    295 Scr=      1
 Normal termination of Gaussian 16 at Tue Feb 21 10:30:21 2023.
