 Initial command:
 /afs/math/software/gaussian/g16.A03/g16/l1.exe "/scratch/zhartovska_gaussian.2oaxEYr/Gau-4631.inp" -scrdir="/scratch/zhartovska_gaussian.2oaxEYr/"
 Entering Link 1 = /afs/math/software/gaussian/g16.A03/g16/l1.exe PID=     22054.
  
 Copyright (c) 1988,1990,1992,1993,1995,1998,2003,2009,2016,
            Gaussian, Inc.  All Rights Reserved.
  
 This is part of the Gaussian(R) 16 program.  It is based on
 the Gaussian(R) 09 system (copyright 2009, Gaussian, Inc.),
 the Gaussian(R) 03 system (copyright 2003, Gaussian, Inc.),
 the Gaussian(R) 98 system (copyright 1998, Gaussian, Inc.),
 the Gaussian(R) 94 system (copyright 1995, Gaussian, Inc.),
 the Gaussian 92(TM) system (copyright 1992, Gaussian, Inc.),
 the Gaussian 90(TM) system (copyright 1990, Gaussian, Inc.),
 the Gaussian 88(TM) system (copyright 1988, Gaussian, Inc.),
 the Gaussian 86(TM) system (copyright 1986, Carnegie Mellon
 University), and the Gaussian 82(TM) system (copyright 1983,
 Carnegie Mellon University). Gaussian is a federally registered
 trademark of Gaussian, Inc.
  
 This software contains proprietary and confidential information,
 including trade secrets, belonging to Gaussian, Inc.
  
 This software is provided under written license and may be
 used, copied, transmitted, or stored only in accord with that
 written license.
  
 The following legend is applicable only to US Government
 contracts under FAR:
  
                    RESTRICTED RIGHTS LEGEND
  
 Use, reproduction and disclosure by the US Government is
 subject to restrictions as set forth in subparagraphs (a)
 and (c) of the Commercial Computer Software - Restricted
 Rights clause in FAR 52.227-19.
  
 Gaussian, Inc.
 340 Quinnipiac St., Bldg. 40, Wallingford CT 06492
  
  
 ---------------------------------------------------------------
 Warning -- This program may not be used in any manner that
 competes with the business of Gaussian, Inc. or will provide
 assistance to any competitor of Gaussian, Inc.  The licensee
 of this program is prohibited from giving any competitor of
 Gaussian, Inc. access to this program.  By using this program,
 the user acknowledges that Gaussian, Inc. is engaged in the
 business of creating and licensing software in the field of
 computational chemistry and represents and warrants to the
 licensee that it is not a competitor of Gaussian, Inc. and that
 it will not use this program in any manner prohibited above.
 ---------------------------------------------------------------
  

 Cite this work as:
 Gaussian 16, Revision A.03,
 M. J. Frisch, G. W. Trucks, H. B. Schlegel, G. E. Scuseria, 
 M. A. Robb, J. R. Cheeseman, G. Scalmani, V. Barone, 
 G. A. Petersson, H. Nakatsuji, X. Li, M. Caricato, A. V. Marenich, 
 J. Bloino, B. G. Janesko, R. Gomperts, B. Mennucci, H. P. Hratchian, 
 J. V. Ortiz, A. F. Izmaylov, J. L. Sonnenberg, D. Williams-Young, 
 F. Ding, F. Lipparini, F. Egidi, J. Goings, B. Peng, A. Petrone, 
 T. Henderson, D. Ranasinghe, V. G. Zakrzewski, J. Gao, N. Rega, 
 G. Zheng, W. Liang, M. Hada, M. Ehara, K. Toyota, R. Fukuda, 
 J. Hasegawa, M. Ishida, T. Nakajima, Y. Honda, O. Kitao, H. Nakai, 
 T. Vreven, K. Throssell, J. A. Montgomery, Jr., J. E. Peralta, 
 F. Ogliaro, M. J. Bearpark, J. J. Heyd, E. N. Brothers, K. N. Kudin, 
 V. N. Staroverov, T. A. Keith, R. Kobayashi, J. Normand, 
 K. Raghavachari, A. P. Rendell, J. C. Burant, S. S. Iyengar, 
 J. Tomasi, M. Cossi, J. M. Millam, M. Klene, C. Adamo, R. Cammi, 
 J. W. Ochterski, R. L. Martin, K. Morokuma, O. Farkas, 
 J. B. Foresman, and D. J. Fox, Gaussian, Inc., Wallingford CT, 2016.
 
 ******************************************
 Gaussian 16:  ES64L-G16RevA.03 25-Dec-2016
                 2-Apr-2023 
 ******************************************
 %nprocs=12
 Will use up to   12 processors via shared memory.
 %mem=16GB
 %chk=2pcb_II_S.chk
 ----------------------------------------------------------------------
 # PBE1PBE/def2TZVP empiricaldispersion=GD3BJ int=(grid=ultrafine) geom
 =check guess=read pop=nbo scf=qc
 ----------------------------------------------------------------------
 1/29=2,38=1,172=1/1;
 2/12=2,40=1/2;
 3/5=44,7=101,11=2,14=-4,25=1,30=1,74=-13,75=-5,116=-2,124=41/1,2,3;
 4/5=1/1;
 5/5=2,8=3,38=6/8;
 6/7=2,8=2,9=2,10=2,28=1,40=1/1,7;
 99/5=1,9=1/99;
 -------------
 2pcb_II_S_nbo
 -------------
 Structure from the checkpoint file:  "2pcb_II_S.chk"
 Charge =  0 Multiplicity = 1
 Z-Matrix found in chk file.
 C,0,34.438,47.118999,62.702999
 C,0,35.814999,47.606998,62.407001
 N,0,36.875,47.675999,63.282001
 C,0,36.300999,48.143002,61.238998
 C,0,37.938,48.182999,62.674999
 N,0,37.611,48.493999,61.448002
 C,0,43.360001,48.891998,60.316002
 C,0,42.576,48.872002,59.02
 S,0,41.227001,50.019001,59.338001
 C,0,40.990002,50.785,57.730999
 Fe,0,39.398998,49.076,60.426998
 C,0,40.834,50.925999,62.865002
 C,0,37.374001,51.689999,59.554001
 C,0,38.300999,47.389999,57.612
 C,0,40.896,46.314999,61.495998
 N,0,39.132,50.938999,61.111
 C,0,39.903,51.578999,62.071999
 C,0,39.534,52.98,62.083
 C,0,38.612999,53.188,61.137001
 C,0,38.335999,51.903,60.521999
 C,0,37.842999,54.462002,60.729
 C,0,40.109001,54.040001,63.066002
 C,0,39.331001,54.242001,64.380997
 C,0,39.528999,55.541,65.112
 O,0,38.521999,56.216999,65.474998
 O,0,40.703999,55.933998,65.382004
 N,0,38.096001,49.452999,58.931999
 C,0,37.334,50.584999,58.755001
 C,0,36.504002,50.436001,57.580002
 C,0,36.793999,49.245998,57.033001
 C,0,37.785,48.608002,57.889999
 C,0,35.529999,51.504002,57.054001
 C,0,36.284,48.638,55.713001
 C,0,37.012001,47.900002,54.886002
 N,0,39.568001,47.212002,59.698002
 C,0,39.108002,46.744999,58.481998
 C,0,39.613998,45.407001,58.262001
 C,0,40.338001,45.074001,59.335999
 C,0,40.297001,46.181999,60.259998
 C,0,39.297001,44.534,57.027
 C,0,41.053001,43.731998,59.516998
 C,0,41.750999,43.388,60.575001
 N,0,40.617001,48.687,61.938
 C,0,41.188,47.472,62.200001
 C,0,42.200001,47.630001,63.241001
 C,0,42.167999,48.917,63.610001
 C,0,41.193001,49.599998,62.801998
 C,0,43.084999,46.450001,63.752998
 C,0,43.023998,49.582001,64.68
 C,0,44.362,50.223,64.300003
 C,0,45.161999,50.646,65.522003
 O,0,44.634998,51.459,66.348999
 O,0,46.317001,50.161999,65.668999
 H,0,41.80894557,50.5314106,57.09074605
 H,0,40.07692396,50.43219567,57.29889069
 H,0,40.94293476,51.84776851,57.84592404
 H,0,44.2921355,49.39407333,60.16125825
 H,0,42.79705503,49.40802447,61.06547416
 H,0,43.54459527,47.88802047,60.6367107
 H,0,43.18093315,49.21660558,58.20747046
 H,0,42.19838762,47.89056059,58.82230923
 H,0,34.44303731,46.57376727,63.6236493
 H,0,33.77399299,47.95387365,62.78653954
 H,0,34.10851515,46.47905457,61.91128512
 H,0,36.84695792,47.38528457,64.23839985
 H,0,35.75443587,48.26518035,60.3272737
 H,0,38.90385163,48.31586323,63.1158819
 H,0,44.93660301,49.51842833,63.73581319
 H,0,44.1744433,51.08388702,63.69288191
 H,0,42.42617166,50.34383998,65.13508795
 H,0,43.22793013,48.84299848,65.42644957
 H,0,45.19331123,52.00648395,66.90590803
 H,0,41.32707734,51.51846625,63.60713224
 H,0,41.10990579,53.75400809,63.31358562
 H,0,40.14668368,54.97958095,62.55544394
 H,0,38.28815015,54.14671622,64.16126327
 H,0,39.60205318,53.4486519,65.04584881
 H,0,41.4613878,55.44780434,65.04797117
 H,0,44.00691472,46.83550309,64.13556767
 H,0,42.56741622,45.92693392,64.52979198
 H,0,43.28716547,45.77889829,62.94451184
 H,0,38.42225016,55.0176163,60.02142608
 H,0,36.90789395,54.18748644,60.28727638
 H,0,37.66507205,55.0640693,61.59546233
 H,0,36.61664181,52.43446342,59.42331137
 H,0,41.17270218,45.39971975,61.97620608
 H,0,38.06390139,46.92458094,56.67815271
 H,0,40.07890505,43.81716198,56.88675265
 H,0,38.36876318,44.02406549,57.1794511
 H,0,39.22383411,45.15627375,56.15963503
 H,0,35.98033259,52.02507271,56.23510847
 H,0,34.62796881,51.03249912,56.72396074
 H,0,35.3041507,52.19736681,57.83703215
 H,0,38.02023668,47.64793402,55.14060472
 H,0,36.59117333,47.55660506,53.96411122
 H,0,35.26569826,48.82515793,55.442939
 H,0,42.75975924,43.72771581,60.68406953
 H,0,41.31090429,42.76802137,61.32789086
 H,0,40.97827515,43.02063908,58.72120623
 Recover connectivity data from disk.
 Stoichiometry    C41H46FeN6O4S
 Framework group  C1[X(C41H46FeN6O4S)]
 Deg. of freedom   291
 Full point group                 C1      NOp   1
 Largest Abelian subgroup         C1      NOp   1
 Largest concise Abelian subgroup C1      NOp   1
                         Standard orientation:                         
 ---------------------------------------------------------------------
 Center     Atomic      Atomic             Coordinates (Angstroms)
 Number     Number       Type             X           Y           Z
 ---------------------------------------------------------------------
      1          6           0        2.452341   -1.508951    5.369520
      2          6           0        1.806793   -1.007875    4.122895
      3          7           0        0.704636   -0.188654    4.032805
      4          6           0        2.123836   -1.298378    2.817974
      5          6           0        0.399746    0.031241    2.762310
      6          7           0        1.227279   -0.645625    2.009838
      7          6           0       -0.607537    2.654348   -2.488435
      8          6           0        0.648785    1.901651   -2.875449
      9         16           0        0.335794    0.238432   -2.265310
     10          6           0        1.135186   -0.781395   -3.508815
     11         26           0        0.868684   -0.079514   -0.022166
     12          6           0       -2.510265   -0.003373    0.027790
     13          6           0        0.845563   -3.481463   -0.371367
     14          6           0        4.279624   -0.123661   -0.601785
     15          6           0        1.058141    3.117034    0.845639
     16          7           0       -0.564255   -1.475338   -0.113136
     17          6           0       -1.931370   -1.244738   -0.186491
     18          6           0       -2.582521   -2.502183   -0.492953
     19          6           0       -1.646165   -3.443744   -0.645009
     20          6           0       -0.363316   -2.813653   -0.393088
     21          6           0       -1.760681   -4.954837   -0.938149
     22          6           0       -4.122300   -2.701477   -0.592382
     23          6           0       -4.841296   -3.110925    0.707886
     24          6           0       -6.181050   -3.781231    0.578595
     25          8           0       -6.400877   -4.868126    1.189436
     26          8           0       -7.088105   -3.236588   -0.120397
     27          7           0        2.257050   -1.501558   -0.375980
     28          6           0        2.056710   -2.860196   -0.461798
     29          6           0        3.320212   -3.526671   -0.687836
     30          6           0        4.263316   -2.577104   -0.778906
     31          6           0        3.605482   -1.294639   -0.564184
     32          6           0        3.491941   -5.046106   -0.854598
     33          6           0        5.756720   -2.726910   -1.124539
     34          6           0        6.456868   -1.868636   -1.853725
     35          7           0        2.375066    1.243551    0.099480
     36          6           0        3.693675    1.044582   -0.261128
     37          6           0        4.399337    2.307011   -0.206500
     38          6           0        3.526198    3.233287    0.203600
     39          6           0        2.258887    2.580178    0.428294
     40          6           0        5.902712    2.493284   -0.511477
     41          6           0        3.863012    4.713772    0.402796
     42          6           0        3.018343    5.627741    0.822439
     43          7           0       -0.488553    1.298034    0.400025
     44          6           0       -0.221025    2.606682    0.694609
     45          6           0       -1.471150    3.361431    0.712824
     46          6           0       -2.451718    2.478240    0.484763
     47          6           0       -1.860868    1.183139    0.275988
     48          6           0       -1.531896    4.900438    0.968812
     49          6           0       -3.945763    2.767862    0.423066
     50          6           0       -4.602717    3.116155   -0.915825
     51          6           0       -6.042951    3.573207   -0.745409
     52          8           0       -6.870027    2.793619   -0.170248
     53          8           0       -6.355129    4.716616   -1.175589
     54          1           0        1.389270   -0.178207   -4.355282
     55          1           0        2.024244   -1.212854   -3.098548
     56          1           0        0.468314   -1.560728   -3.813484
     57          1           0       -1.174608    2.877827   -3.367860
     58          1           0       -1.195585    2.051337   -1.828529
     59          1           0       -0.339827    3.565553   -1.995548
     60          1           0        0.773643    1.896672   -3.938128
     61          1           0        1.505788    2.325096   -2.394679
     62          1           0        2.109743   -0.934126    6.204447
     63          1           0        2.195939   -2.537490    5.515346
     64          1           0        3.514736   -1.414925    5.283636
     65          1           0        0.205652    0.186673    4.813922
     66          1           0        2.927961   -1.923339    2.489785
     67          1           0       -0.392355    0.658703    2.410506
     68          1           0       -4.043185    3.899014   -1.383752
     69          1           0       -4.585150    2.251823   -1.546319
     70          1           0       -4.451032    1.907230    0.808962
     71          1           0       -4.138139    3.581391    1.090944
     72          1           0       -7.809588    2.873082   -0.350556
     73          1           0       -3.579094    0.035791   -0.003348
     74          1           0       -4.553827   -1.784293   -0.935104
     75          1           0       -4.312205   -3.455255   -1.327674
     76          1           0       -4.194724   -3.774224    1.243498
     77          1           0       -4.973137   -2.229214    1.299582
     78          1           0       -6.892290   -2.446914   -0.629977
     79          1           0       -2.408249    5.304561    0.506654
     80          1           0       -1.566432    5.085722    2.022081
     81          1           0       -0.662636    5.365731    0.553131
     82          1           0       -1.819468   -5.109630   -1.995260
     83          1           0       -0.900186   -5.459454   -0.551096
     84          1           0       -2.641774   -5.342949   -0.471304
     85          1           0        0.831260   -4.547308   -0.278264
     86          1           0        1.123951    4.055478    1.355436
     87          1           0        5.304416   -0.122191   -0.909516
     88          1           0        6.082589    3.503455   -0.814956
     89          1           0        6.474248    2.277641    0.367013
     90          1           0        6.192293    1.827739   -1.297666
     91          1           0        3.585559   -5.282520   -1.893946
     92          1           0        4.371800   -5.364680   -0.335697
     93          1           0        2.637923   -5.548083   -0.450156
     94          1           0        5.997983   -0.969841   -2.209383
     95          1           0        7.480682   -2.074915   -2.086436
     96          1           0        6.267725   -3.588288   -0.747974
     97          1           0        2.325090    6.070136    0.137905
     98          1           0        3.023444    5.929968    1.848856
     99          1           0        4.862232    5.027395    0.183478
 ---------------------------------------------------------------------
 Rotational constants (GHZ):           0.0637291           0.0442599           0.0329895
 Standard basis: def2TZVP (5D, 7F)
 There are  2206 symmetry adapted cartesian basis functions of A   symmetry.
 There are  1939 symmetry adapted basis functions of A   symmetry.
  1939 basis functions,  3140 primitive gaussians,  2206 cartesian basis functions
   204 alpha electrons      204 beta electrons
       nuclear repulsion energy      8858.2281876867 Hartrees.
 NAtoms=   99 NActive=   99 NUniq=   99 SFac= 1.00D+00 NAtFMM=   60 NAOKFM=T Big=T
 Integral buffers will be    131072 words long.
 Raffenetti 2 integral format.
 Two-electron integral symmetry is turned on.
 Nuclear repulsion after empirical dispersion term =     8858.0791785440 Hartrees.
 One-electron integrals computed using PRISM.
   1 Symmetry operations used in ECPInt.
 ECPInt:  NShTT=  299151 NPrTT=  925475 LenC2=  218963 LenP2D=  437822.
 LDataN:  DoStor=T MaxTD1= 6 Len=  172
 NBasis=  1939 RedAO= T EigKep=  3.40D-06  NBF=  1939
 NBsUse=  1939 1.00D-06 EigRej= -1.00D+00 NBFU=  1939
 Initial guess from the checkpoint file:  "2pcb_II_S.chk"
 B after Tr=     0.000000    0.000000    0.000000
         Rot=    1.000000    0.000000    0.000000    0.000000 Ang=   0.00 deg.
 SCF Done:  E(RPBE1PBE) =  -3879.32367031     a.u. after    1 cycles
            Convg  =    0.9865D-06                     1 Fock formations.
              S**2 =  0.0000                  -V/T =  2.0031

 **********************************************************************

            Population analysis using the SCF density.

 **********************************************************************

 Orbital symmetries:
       Occupied  (A) (A) (A) (A) (A) (A) (A) (A) (A) (A) (A) (A)
                 (A) (A) (A) (A) (A) (A) (A) (A) (A) (A) (A) (A)
                 (A) (A) (A) (A) (A) (A) (A) (A) (A) (A) (A) (A)
                 (A) (A) (A) (A) (A) (A) (A) (A) (A) (A) (A) (A)
                 (A) (A) (A) (A) (A) (A) (A) (A) (A) (A) (A) (A)
                 (A) (A) (A) (A) (A) (A) (A) (A) (A) (A) (A) (A)
                 (A) (A) (A) (A) (A) (A) (A) (A) (A) (A) (A) (A)
                 (A) (A) (A) (A) (A) (A) (A) (A) (A) (A) (A) (A)
                 (A) (A) (A) (A) (A) (A) (A) (A) (A) (A) (A) (A)
                 (A) (A) (A) (A) (A) (A) (A) (A) (A) (A) (A) (A)
                 (A) (A) (A) (A) (A) (A) (A) (A) (A) (A) (A) (A)
                 (A) (A) (A) (A) (A) (A) (A) (A) (A) (A) (A) (A)
                 (A) (A) (A) (A) (A) (A) (A) (A) (A) (A) (A) (A)
                 (A) (A) (A) (A) (A) (A) (A) (A) (A) (A) (A) (A)
                 (A) (A) (A) (A) (A) (A) (A) (A) (A) (A) (A) (A)
                 (A) (A) (A) (A) (A) (A) (A) (A) (A) (A) (A) (A)
                 (A) (A) (A) (A) (A) (A) (A) (A) (A) (A) (A) (A)
       Virtual   (A) (A) (A) (A) (A) (A) (A) (A) (A) (A) (A) (A)
                 (A) (A) (A) (A) (A) (A) (A) (A) (A) (A) (A) (A)
                 (A) (A) (A) (A) (A) (A) (A) (A) (A) (A) (A) (A)
                 (A) (A) (A) (A) (A) (A) (A) (A) (A) (A) (A) (A)
                 (A) (A) (A) (A) (A) (A) (A) (A) (A) (A) (A) (A)
                 (A) (A) (A) (A) (A) (A) (A) (A) (A) (A) (A) (A)
                 (A) (A) (A) (A) (A) (A) (A) (A) (A) (A) (A) (A)
                 (A) (A) (A) (A) (A) (A) (A) (A) (A) (A) (A) (A)
                 (A) (A) (A) (A) (A) (A) (A) (A) (A) (A) (A) (A)
                 (A) (A) (A) (A) (A) (A) (A) (A) (A) (A) (A) (A)
                 (A) (A) (A) (A) (A) (A) (A) (A) (A) (A) (A) (A)
                 (A) (A) (A) (A) (A) (A) (A) (A) (A) (A) (A) (A)
                 (A) (A) (A) (A) (A) (A) (A) (A) (A) (A) (A) (A)
                 (A) (A) (A) (A) (A) (A) (A) (A) (A) (A) (A) (A)
                 (A) (A) (A) (A) (A) (A) (A) (A) (A) (A) (A) (A)
                 (A) (A) (A) (A) (A) (A) (A) (A) (A) (A) (A) (A)
                 (A) (A) (A) (A) (A) (A) (A) (A) (A) (A) (A) (A)
                 (A) (A) (A) (A) (A) (A) (A) (A) (A) (A) (A) (A)
                 (A) (A) (A) (A) (A) (A) (A) (A) (A) (A) (A) (A)
                 (A) (A) (A) (A) (A) (A) (A) (A) (A) (A) (A) (A)
                 (A) (A) (A) (A) (A) (A) (A) (A) (A) (A) (A) (A)
                 (A) (A) (A) (A) (A) (A) (A) (A) (A) (A) (A) (A)
                 (A) (A) (A) (A) (A) (A) (A) (A) (A) (A) (A) (A)
                 (A) (A) (A) (A) (A) (A) (A) (A) (A) (A) (A) (A)
                 (A) (A) (A) (A) (A) (A) (A) (A) (A) (A) (A) (A)
                 (A) (A) (A) (A) (A) (A) (A) (A) (A) (A) (A) (A)
                 (A) (A) (A) (A) (A) (A) (A) (A) (A) (A) (A) (A)
                 (A) (A) (A) (A) (A) (A) (A) (A) (A) (A) (A) (A)
                 (A) (A) (A) (A) (A) (A) (A) (A) (A) (A) (A) (A)
                 (A) (A) (A) (A) (A) (A) (A) (A) (A) (A) (A) (A)
                 (A) (A) (A) (A) (A) (A) (A) (A) (A) (A) (A) (A)
                 (A) (A) (A) (A) (A) (A) (A) (A) (A) (A) (A) (A)
                 (A) (A) (A) (A) (A) (A) (A) (A) (A) (A) (A) (A)
                 (A) (A) (A) (A) (A) (A) (A) (A) (A) (A) (A) (A)
                 (A) (A) (A) (A) (A) (A) (A) (A) (A) (A) (A) (A)
                 (A) (A) (A) (A) (A) (A) (A) (A) (A) (A) (A) (A)
                 (A) (A) (A) (A) (A) (A) (A) (A) (A) (A) (A) (A)
                 (A) (A) (A) (A) (A) (A) (A) (A) (A) (A) (A) (A)
                 (A) (A) (A) (A) (A) (A) (A) (A) (A) (A) (A) (A)
                 (A) (A) (A) (A) (A) (A) (A) (A) (A) (A) (A) (A)
                 (A) (A) (A) (A) (A) (A) (A) (A) (A) (A) (A) (A)
                 (A) (A) (A) (A) (A) (A) (A) (A) (A) (A) (A) (A)
                 (A) (A) (A) (A) (A) (A) (A) (A) (A) (A) (A) (A)
                 (A) (A) (A) (A) (A) (A) (A) (A) (A) (A) (A) (A)
                 (A) (A) (A) (A) (A) (A) (A) (A) (A) (A) (A) (A)
                 (A) (A) (A) (A) (A) (A) (A) (A) (A) (A) (A) (A)
                 (A) (A) (A) (A) (A) (A) (A) (A) (A) (A) (A) (A)
                 (A) (A) (A) (A) (A) (A) (A) (A) (A) (A) (A) (A)
                 (A) (A) (A) (A) (A) (A) (A) (A) (A) (A) (A) (A)
                 (A) (A) (A) (A) (A) (A) (A) (A) (A) (A) (A) (A)
                 (A) (A) (A) (A) (A) (A) (A) (A) (A) (A) (A) (A)
                 (A) (A) (A) (A) (A) (A) (A) (A) (A) (A) (A) (A)
                 (A) (A) (A) (A) (A) (A) (A) (A) (A) (A) (A) (A)
                 (A) (A) (A) (A) (A) (A) (A) (A) (A) (A) (A) (A)
                 (A) (A) (A) (A) (A) (A) (A) (A) (A) (A) (A) (A)
                 (A) (A) (A) (A) (A) (A) (A) (A) (A) (A) (A) (A)
                 (A) (A) (A) (A) (A) (A) (A) (A) (A) (A) (A) (A)
                 (A) (A) (A) (A) (A) (A) (A) (A) (A) (A) (A) (A)
                 (A) (A) (A) (A) (A) (A) (A) (A) (A) (A) (A) (A)
                 (A) (A) (A) (A) (A) (A) (A) (A) (A) (A) (A) (A)
                 (A) (A) (A) (A) (A) (A) (A) (A) (A) (A) (A) (A)
                 (A) (A) (A) (A) (A) (A) (A) (A) (A) (A) (A) (A)
                 (A) (A) (A) (A) (A) (A) (A) (A) (A) (A) (A) (A)
                 (A) (A) (A) (A) (A) (A) (A) (A) (A) (A) (A) (A)
                 (A) (A) (A) (A) (A) (A) (A) (A) (A) (A) (A) (A)
                 (A) (A) (A) (A) (A) (A) (A) (A) (A) (A) (A) (A)
                 (A) (A) (A) (A) (A) (A) (A) (A) (A) (A) (A) (A)
                 (A) (A) (A) (A) (A) (A) (A) (A) (A) (A) (A) (A)
                 (A) (A) (A) (A) (A) (A) (A) (A) (A) (A) (A) (A)
                 (A) (A) (A) (A) (A) (A) (A) (A) (A) (A) (A) (A)
                 (A) (A) (A) (A) (A) (A) (A) (A) (A) (A) (A) (A)
                 (A) (A) (A) (A) (A) (A) (A) (A) (A) (A) (A) (A)
                 (A) (A) (A) (A) (A) (A) (A) (A) (A) (A) (A) (A)
                 (A) (A) (A) (A) (A) (A) (A) (A) (A) (A) (A) (A)
                 (A) (A) (A) (A) (A) (A) (A) (A) (A) (A) (A) (A)
                 (A) (A) (A) (A) (A) (A) (A) (A) (A) (A) (A) (A)
                 (A) (A) (A) (A) (A) (A) (A) (A) (A) (A) (A) (A)
                 (A) (A) (A) (A) (A) (A) (A) (A) (A) (A) (A) (A)
                 (A) (A) (A) (A) (A) (A) (A) (A) (A) (A) (A) (A)
                 (A) (A) (A) (A) (A) (A) (A) (A) (A) (A) (A) (A)
                 (A) (A) (A) (A) (A) (A) (A) (A) (A) (A) (A) (A)
                 (A) (A) (A) (A) (A) (A) (A) (A) (A) (A) (A) (A)
                 (A) (A) (A) (A) (A) (A) (A) (A) (A) (A) (A) (A)
                 (A) (A) (A) (A) (A) (A) (A) (A) (A) (A) (A) (A)
                 (A) (A) (A) (A) (A) (A) (A) (A) (A) (A) (A) (A)
                 (A) (A) (A) (A) (A) (A) (A) (A) (A) (A) (A) (A)
                 (A) (A) (A) (A) (A) (A) (A) (A) (A) (A) (A) (A)
                 (A) (A) (A) (A) (A) (A) (A) (A) (A) (A) (A) (A)
                 (A) (A) (A) (A) (A) (A) (A) (A) (A) (A) (A) (A)
                 (A) (A) (A) (A) (A) (A) (A) (A) (A) (A) (A) (A)
                 (A) (A) (A) (A) (A) (A) (A) (A) (A) (A) (A) (A)
                 (A) (A) (A) (A) (A) (A) (A) (A) (A) (A) (A) (A)
                 (A) (A) (A) (A) (A) (A) (A) (A) (A) (A) (A) (A)
                 (A) (A) (A) (A) (A) (A) (A) (A) (A) (A) (A) (A)
                 (A) (A) (A) (A) (A) (A) (A) (A) (A) (A) (A) (A)
                 (A) (A) (A) (A) (A) (A) (A) (A) (A) (A) (A) (A)
                 (A) (A) (A) (A) (A) (A) (A) (A) (A) (A) (A) (A)
                 (A) (A) (A) (A) (A) (A) (A) (A) (A) (A) (A) (A)
                 (A) (A) (A) (A) (A) (A) (A) (A) (A) (A) (A) (A)
                 (A) (A) (A) (A) (A) (A) (A) (A) (A) (A) (A) (A)
                 (A) (A) (A) (A) (A) (A) (A) (A) (A) (A) (A) (A)
                 (A) (A) (A) (A) (A) (A) (A) (A) (A) (A) (A) (A)
                 (A) (A) (A) (A) (A) (A) (A) (A) (A) (A) (A) (A)
                 (A) (A) (A) (A) (A) (A) (A) (A) (A) (A) (A) (A)
                 (A) (A) (A) (A) (A) (A) (A) (A) (A) (A) (A) (A)
                 (A) (A) (A) (A) (A) (A) (A) (A) (A) (A) (A) (A)
                 (A) (A) (A) (A) (A) (A) (A) (A) (A) (A) (A) (A)
                 (A) (A) (A) (A) (A) (A) (A) (A) (A) (A) (A) (A)
                 (A) (A) (A) (A) (A) (A) (A) (A) (A) (A) (A) (A)
                 (A) (A) (A) (A) (A) (A) (A) (A) (A) (A) (A) (A)
                 (A) (A) (A) (A) (A) (A) (A) (A) (A) (A) (A) (A)
                 (A) (A) (A) (A) (A) (A) (A) (A) (A) (A) (A) (A)
                 (A) (A) (A) (A) (A) (A) (A) (A) (A) (A) (A) (A)
                 (A) (A) (A) (A) (A) (A) (A) (A) (A) (A) (A) (A)
                 (A) (A) (A) (A) (A) (A) (A) (A) (A) (A) (A) (A)
                 (A) (A) (A) (A) (A) (A) (A) (A) (A) (A) (A) (A)
                 (A) (A) (A) (A) (A) (A) (A) (A) (A) (A) (A) (A)
                 (A) (A) (A) (A) (A) (A) (A) (A) (A) (A) (A) (A)
                 (A) (A) (A) (A) (A) (A) (A) (A) (A) (A) (A) (A)
                 (A) (A) (A) (A) (A) (A) (A) (A) (A) (A) (A) (A)
                 (A) (A) (A) (A) (A) (A) (A) (A) (A) (A) (A) (A)
                 (A) (A) (A) (A) (A) (A) (A) (A) (A) (A) (A) (A)
                 (A) (A) (A) (A) (A) (A) (A) (A) (A) (A) (A) (A)
                 (A) (A) (A) (A) (A) (A) (A) (A) (A) (A) (A) (A)
                 (A) (A) (A) (A) (A) (A) (A) (A) (A) (A) (A) (A)
                 (A) (A) (A) (A) (A) (A) (A) (A) (A) (A) (A) (A)
                 (A) (A) (A) (A) (A) (A) (A) (A) (A) (A) (A) (A)
                 (A) (A) (A) (A) (A) (A) (A) (A) (A) (A) (A) (A)
                 (A) (A) (A) (A) (A) (A) (A) (A) (A) (A) (A) (A)
                 (A) (A) (A) (A) (A) (A) (A) (A) (A) (A) (A) (A)
                 (A) (A) (A) (A) (A) (A) (A) (A) (A) (A) (A) (A)
                 (A) (A) (A) (A) (A) (A) (A) (A) (A) (A) (A) (A)
                 (A) (A) (A) (A) (A) (A) (A) (A) (A) (A) (A) (A)
                 (A) (A) (A) (A) (A) (A) (A) (A) (A) (A) (A) (A)
                 (A) (A) (A) (A) (A) (A) (A) (A) (A) (A) (A) (A)
                 (A) (A) (A) (A) (A) (A) (A) (A) (A) (A) (A) (A)
                 (A) (A) (A) (A) (A) (A) (A) (A) (A) (A) (A) (A)
                 (A) (A) (A) (A) (A) (A) (A) (A) (A) (A) (A) (A)
                 (A) (A) (A) (A) (A) (A) (A) (A) (A) (A) (A) (A)
                 (A) (A) (A) (A) (A) (A) (A) (A) (A) (A) (A) (A)
                 (A) (A) (A) (A) (A) (A) (A) (A) (A) (A) (A) (A)
                 (A) (A) (A) (A) (A) (A) (A) (A) (A) (A) (A) (A)
                 (A) (A) (A) (A) (A) (A) (A) (A) (A) (A) (A) (A)
                 (A) (A) (A) (A) (A) (A) (A) (A) (A) (A) (A) (A)
                 (A) (A) (A) (A) (A) (A) (A)
 The electronic state is 1-A.
 Alpha  occ. eigenvalues -- -256.31638 -89.02175 -30.08492 -25.91332 -25.90944
 Alpha  occ. eigenvalues --  -25.90902 -19.27562 -19.27265 -19.18390 -19.17354
 Alpha  occ. eigenvalues --  -14.44596 -14.38462 -14.37499 -14.37485 -14.37228
 Alpha  occ. eigenvalues --  -14.37156 -10.36216 -10.35381 -10.26972 -10.26321
 Alpha  occ. eigenvalues --  -10.25032 -10.24724 -10.24604 -10.24534 -10.24333
 Alpha  occ. eigenvalues --  -10.24311 -10.24229 -10.24081 -10.24077 -10.23819
 Alpha  occ. eigenvalues --  -10.23719 -10.23718 -10.23559 -10.23504 -10.23329
 Alpha  occ. eigenvalues --  -10.23283 -10.23220 -10.23052 -10.22902 -10.22742
 Alpha  occ. eigenvalues --  -10.22549 -10.22490 -10.22413 -10.22361 -10.22337
 Alpha  occ. eigenvalues --  -10.22300 -10.22240 -10.21691 -10.21655 -10.21649
 Alpha  occ. eigenvalues --  -10.21619 -10.21536 -10.21503 -10.21470 -10.20649
 Alpha  occ. eigenvalues --  -10.20224 -10.19384  -8.00017  -5.93689  -5.93366
 Alpha  occ. eigenvalues --   -5.92833  -3.43026  -2.19057  -2.18314  -2.18222
 Alpha  occ. eigenvalues --   -1.16883  -1.16572  -1.06408  -1.02548  -1.01599
 Alpha  occ. eigenvalues --   -0.98153  -0.97312  -0.96820  -0.95898  -0.90837
 Alpha  occ. eigenvalues --   -0.84434  -0.84186  -0.83926  -0.83507  -0.82763
 Alpha  occ. eigenvalues --   -0.82339  -0.81633  -0.81563  -0.80964  -0.79578
 Alpha  occ. eigenvalues --   -0.79020  -0.78254  -0.77725  -0.76667  -0.75958
 Alpha  occ. eigenvalues --   -0.74255  -0.73034  -0.72874  -0.72149  -0.71533
 Alpha  occ. eigenvalues --   -0.70179  -0.69557  -0.69392  -0.67213  -0.66665
 Alpha  occ. eigenvalues --   -0.66444  -0.65829  -0.65531  -0.64284  -0.62208
 Alpha  occ. eigenvalues --   -0.61547  -0.61009  -0.60727  -0.59224  -0.58058
 Alpha  occ. eigenvalues --   -0.56912  -0.56363  -0.55572  -0.55127  -0.54141
 Alpha  occ. eigenvalues --   -0.53341  -0.52489  -0.52381  -0.51789  -0.51401
 Alpha  occ. eigenvalues --   -0.50767  -0.50301  -0.49991  -0.49252  -0.49087
 Alpha  occ. eigenvalues --   -0.48823  -0.48452  -0.48083  -0.48000  -0.47749
 Alpha  occ. eigenvalues --   -0.46979  -0.46740  -0.46116  -0.46023  -0.45685
 Alpha  occ. eigenvalues --   -0.45350  -0.45226  -0.44978  -0.44647  -0.44582
 Alpha  occ. eigenvalues --   -0.44223  -0.44051  -0.44005  -0.43800  -0.43595
 Alpha  occ. eigenvalues --   -0.43486  -0.43445  -0.43343  -0.43118  -0.42638
 Alpha  occ. eigenvalues --   -0.42348  -0.42008  -0.41788  -0.41467  -0.41130
 Alpha  occ. eigenvalues --   -0.40887  -0.40785  -0.40510  -0.40223  -0.39865
 Alpha  occ. eigenvalues --   -0.39624  -0.39436  -0.39208  -0.39119  -0.38854
 Alpha  occ. eigenvalues --   -0.38582  -0.38372  -0.37833  -0.37725  -0.37308
 Alpha  occ. eigenvalues --   -0.37241  -0.36954  -0.36531  -0.36023  -0.35484
 Alpha  occ. eigenvalues --   -0.35298  -0.34818  -0.34318  -0.33678  -0.33174
 Alpha  occ. eigenvalues --   -0.32890  -0.32523  -0.32118  -0.31924  -0.31901
 Alpha  occ. eigenvalues --   -0.31199  -0.29843  -0.29528  -0.29166  -0.28201
 Alpha  occ. eigenvalues --   -0.27664  -0.27232  -0.27106  -0.26091  -0.25041
 Alpha  occ. eigenvalues --   -0.24695  -0.23993  -0.23413  -0.20756  -0.19964
 Alpha  occ. eigenvalues --   -0.19260  -0.19136  -0.18946  -0.16929
 Alpha virt. eigenvalues --   -0.08973  -0.07166  -0.06082  -0.01678  -0.00674
 Alpha virt. eigenvalues --    0.00141   0.00840   0.01156   0.01223   0.02445
 Alpha virt. eigenvalues --    0.02739   0.03020   0.03585   0.03995   0.04384
 Alpha virt. eigenvalues --    0.04501   0.04828   0.04941   0.05550   0.05799
 Alpha virt. eigenvalues --    0.05968   0.06102   0.06443   0.06520   0.06845
 Alpha virt. eigenvalues --    0.07367   0.07559   0.08007   0.08148   0.08299
 Alpha virt. eigenvalues --    0.08384   0.08669   0.09093   0.09308   0.09448
 Alpha virt. eigenvalues --    0.09758   0.09938   0.10458   0.10722   0.10904
 Alpha virt. eigenvalues --    0.11185   0.11445   0.11591   0.11903   0.12107
 Alpha virt. eigenvalues --    0.12351   0.12534   0.12832   0.12899   0.13191
 Alpha virt. eigenvalues --    0.13322   0.13494   0.13674   0.13935   0.14126
 Alpha virt. eigenvalues --    0.14211   0.14451   0.14557   0.14708   0.14919
 Alpha virt. eigenvalues --    0.15053   0.15415   0.15634   0.15761   0.15881
 Alpha virt. eigenvalues --    0.16134   0.16340   0.16523   0.16818   0.16959
 Alpha virt. eigenvalues --    0.17216   0.17423   0.17641   0.17865   0.18345
 Alpha virt. eigenvalues --    0.18437   0.18700   0.19153   0.19241   0.19621
 Alpha virt. eigenvalues --    0.19782   0.19967   0.20103   0.20339   0.20553
 Alpha virt. eigenvalues --    0.20812   0.20932   0.21208   0.21227   0.21521
 Alpha virt. eigenvalues --    0.21755   0.21914   0.22176   0.22372   0.22564
 Alpha virt. eigenvalues --    0.22803   0.22970   0.23290   0.23554   0.23712
 Alpha virt. eigenvalues --    0.23817   0.23982   0.24150   0.24299   0.24532
 Alpha virt. eigenvalues --    0.24629   0.24939   0.25016   0.25351   0.25459
 Alpha virt. eigenvalues --    0.25641   0.26040   0.26248   0.26448   0.26716
 Alpha virt. eigenvalues --    0.26914   0.27006   0.27226   0.27514   0.27894
 Alpha virt. eigenvalues --    0.27982   0.28245   0.28365   0.28692   0.28757
 Alpha virt. eigenvalues --    0.28828   0.29069   0.29182   0.29423   0.29603
 Alpha virt. eigenvalues --    0.29787   0.30021   0.30332   0.30462   0.30548
 Alpha virt. eigenvalues --    0.30727   0.31048   0.31238   0.31435   0.31649
 Alpha virt. eigenvalues --    0.31968   0.32074   0.32176   0.32561   0.32848
 Alpha virt. eigenvalues --    0.32925   0.33354   0.33598   0.33716   0.34058
 Alpha virt. eigenvalues --    0.34602   0.34716   0.34937   0.34997   0.35163
 Alpha virt. eigenvalues --    0.35459   0.35592   0.35813   0.35999   0.36028
 Alpha virt. eigenvalues --    0.36322   0.36617   0.36722   0.36972   0.37274
 Alpha virt. eigenvalues --    0.37775   0.37988   0.38121   0.38399   0.38478
 Alpha virt. eigenvalues --    0.39059   0.39137   0.39311   0.39478   0.39710
 Alpha virt. eigenvalues --    0.39884   0.40012   0.40225   0.40273   0.40425
 Alpha virt. eigenvalues --    0.40825   0.41015   0.41221   0.41288   0.41479
 Alpha virt. eigenvalues --    0.41626   0.41999   0.42078   0.42253   0.42576
 Alpha virt. eigenvalues --    0.42675   0.43007   0.43102   0.43167   0.43266
 Alpha virt. eigenvalues --    0.43584   0.43796   0.43959   0.44032   0.44123
 Alpha virt. eigenvalues --    0.44471   0.44564   0.44658   0.44748   0.45187
 Alpha virt. eigenvalues --    0.45462   0.45517   0.45741   0.45817   0.45971
 Alpha virt. eigenvalues --    0.46226   0.46332   0.46473   0.46646   0.46723
 Alpha virt. eigenvalues --    0.46876   0.47102   0.47173   0.47307   0.47419
 Alpha virt. eigenvalues --    0.47483   0.47761   0.47918   0.48110   0.48267
 Alpha virt. eigenvalues --    0.48432   0.48600   0.48790   0.48993   0.49045
 Alpha virt. eigenvalues --    0.49141   0.49518   0.49766   0.49870   0.50068
 Alpha virt. eigenvalues --    0.50244   0.50474   0.50629   0.51007   0.51258
 Alpha virt. eigenvalues --    0.51451   0.51590   0.51684   0.51837   0.52073
 Alpha virt. eigenvalues --    0.52343   0.52580   0.52687   0.52771   0.53067
 Alpha virt. eigenvalues --    0.53376   0.53565   0.53802   0.53892   0.54088
 Alpha virt. eigenvalues --    0.54173   0.54383   0.54607   0.55039   0.55122
 Alpha virt. eigenvalues --    0.55204   0.55585   0.55805   0.56022   0.56174
 Alpha virt. eigenvalues --    0.56388   0.56617   0.56750   0.56791   0.57045
 Alpha virt. eigenvalues --    0.57399   0.57502   0.57780   0.57914   0.58341
 Alpha virt. eigenvalues --    0.58418   0.58623   0.58893   0.59050   0.59296
 Alpha virt. eigenvalues --    0.59584   0.59728   0.59961   0.60054   0.60493
 Alpha virt. eigenvalues --    0.60806   0.60867   0.61272   0.61620   0.61784
 Alpha virt. eigenvalues --    0.62104   0.62293   0.62396   0.62790   0.62955
 Alpha virt. eigenvalues --    0.63089   0.63333   0.63501   0.63642   0.64267
 Alpha virt. eigenvalues --    0.64398   0.64654   0.64892   0.65021   0.65359
 Alpha virt. eigenvalues --    0.65551   0.65626   0.65944   0.66238   0.66391
 Alpha virt. eigenvalues --    0.66574   0.66900   0.67329   0.67727   0.67902
 Alpha virt. eigenvalues --    0.68271   0.68522   0.68768   0.68873   0.69305
 Alpha virt. eigenvalues --    0.69465   0.69787   0.70080   0.70482   0.70623
 Alpha virt. eigenvalues --    0.70849   0.71121   0.71504   0.71870   0.72116
 Alpha virt. eigenvalues --    0.72195   0.72299   0.72676   0.73094   0.73160
 Alpha virt. eigenvalues --    0.73381   0.73844   0.74033   0.74520   0.74877
 Alpha virt. eigenvalues --    0.75112   0.75262   0.75553   0.75691   0.75972
 Alpha virt. eigenvalues --    0.76106   0.76531   0.77066   0.77123   0.77185
 Alpha virt. eigenvalues --    0.77681   0.77801   0.78170   0.78675   0.78715
 Alpha virt. eigenvalues --    0.78754   0.79326   0.79587   0.79739   0.79927
 Alpha virt. eigenvalues --    0.80158   0.80357   0.80765   0.80978   0.81296
 Alpha virt. eigenvalues --    0.81636   0.81683   0.81978   0.82450   0.82630
 Alpha virt. eigenvalues --    0.83146   0.83294   0.83526   0.83817   0.84168
 Alpha virt. eigenvalues --    0.84499   0.84626   0.85000   0.85357   0.85695
 Alpha virt. eigenvalues --    0.85840   0.86176   0.86437   0.86914   0.87111
 Alpha virt. eigenvalues --    0.87251   0.87584   0.87696   0.88340   0.88459
 Alpha virt. eigenvalues --    0.88730   0.88790   0.89321   0.89493   0.90002
 Alpha virt. eigenvalues --    0.90163   0.90553   0.90856   0.91142   0.91262
 Alpha virt. eigenvalues --    0.91536   0.91693   0.92148   0.92371   0.92848
 Alpha virt. eigenvalues --    0.93138   0.93343   0.93433   0.93913   0.94061
 Alpha virt. eigenvalues --    0.94781   0.94961   0.95110   0.95318   0.95366
 Alpha virt. eigenvalues --    0.95713   0.95898   0.96048   0.96498   0.96774
 Alpha virt. eigenvalues --    0.96896   0.97058   0.97269   0.97593   0.97779
 Alpha virt. eigenvalues --    0.98237   0.98477   0.98701   0.98783   0.98949
 Alpha virt. eigenvalues --    0.99486   0.99915   0.99990   1.00355   1.00493
 Alpha virt. eigenvalues --    1.00615   1.01174   1.01187   1.01525   1.01975
 Alpha virt. eigenvalues --    1.02481   1.02748   1.02859   1.02985   1.03261
 Alpha virt. eigenvalues --    1.03816   1.04191   1.04597   1.04874   1.05140
 Alpha virt. eigenvalues --    1.05302   1.05428   1.05557   1.06253   1.06590
 Alpha virt. eigenvalues --    1.07045   1.07361   1.07837   1.08052   1.08097
 Alpha virt. eigenvalues --    1.08572   1.08795   1.09264   1.09481   1.09576
 Alpha virt. eigenvalues --    1.09819   1.10130   1.10475   1.10942   1.11289
 Alpha virt. eigenvalues --    1.11434   1.11744   1.12091   1.12524   1.12702
 Alpha virt. eigenvalues --    1.12943   1.13329   1.13503   1.13732   1.14243
 Alpha virt. eigenvalues --    1.14461   1.14840   1.15147   1.15252   1.15626
 Alpha virt. eigenvalues --    1.16132   1.16250   1.16349   1.17432   1.17578
 Alpha virt. eigenvalues --    1.18064   1.18136   1.18538   1.18693   1.19270
 Alpha virt. eigenvalues --    1.19798   1.19998   1.20363   1.20550   1.20684
 Alpha virt. eigenvalues --    1.21197   1.21553   1.22219   1.22271   1.22731
 Alpha virt. eigenvalues --    1.23091   1.23206   1.23845   1.24117   1.24205
 Alpha virt. eigenvalues --    1.24731   1.24964   1.25256   1.25625   1.26316
 Alpha virt. eigenvalues --    1.26388   1.26602   1.26736   1.27303   1.27670
 Alpha virt. eigenvalues --    1.28346   1.28573   1.29111   1.29192   1.29443
 Alpha virt. eigenvalues --    1.29675   1.29966   1.30364   1.30811   1.31055
 Alpha virt. eigenvalues --    1.31394   1.31936   1.32059   1.32611   1.32753
 Alpha virt. eigenvalues --    1.33272   1.33773   1.33873   1.34369   1.34694
 Alpha virt. eigenvalues --    1.35206   1.35462   1.35965   1.36033   1.36297
 Alpha virt. eigenvalues --    1.37195   1.37577   1.37785   1.38165   1.38556
 Alpha virt. eigenvalues --    1.38748   1.38991   1.39552   1.39877   1.40590
 Alpha virt. eigenvalues --    1.41037   1.41282   1.41611   1.42138   1.42159
 Alpha virt. eigenvalues --    1.42623   1.43152   1.43671   1.43960   1.44034
 Alpha virt. eigenvalues --    1.44407   1.45193   1.45641   1.45974   1.46007
 Alpha virt. eigenvalues --    1.46419   1.46513   1.46966   1.47225   1.47762
 Alpha virt. eigenvalues --    1.47932   1.48094   1.48464   1.48931   1.49350
 Alpha virt. eigenvalues --    1.49598   1.49908   1.49931   1.50771   1.51178
 Alpha virt. eigenvalues --    1.51380   1.51747   1.51784   1.51977   1.52411
 Alpha virt. eigenvalues --    1.52630   1.52722   1.53135   1.53344   1.53526
 Alpha virt. eigenvalues --    1.53864   1.54029   1.54529   1.54892   1.54982
 Alpha virt. eigenvalues --    1.55429   1.55609   1.55917   1.56095   1.56428
 Alpha virt. eigenvalues --    1.56995   1.57187   1.57569   1.57669   1.57906
 Alpha virt. eigenvalues --    1.58011   1.58314   1.58833   1.59064   1.59117
 Alpha virt. eigenvalues --    1.59459   1.59616   1.59775   1.60171   1.60249
 Alpha virt. eigenvalues --    1.60668   1.60882   1.61387   1.61698   1.61846
 Alpha virt. eigenvalues --    1.61990   1.62243   1.62546   1.62634   1.62853
 Alpha virt. eigenvalues --    1.63381   1.63544   1.63843   1.64243   1.64406
 Alpha virt. eigenvalues --    1.64936   1.65262   1.65419   1.65693   1.65801
 Alpha virt. eigenvalues --    1.66273   1.66347   1.66383   1.66639   1.67042
 Alpha virt. eigenvalues --    1.67278   1.67448   1.67636   1.67948   1.68576
 Alpha virt. eigenvalues --    1.68770   1.69049   1.69362   1.69667   1.69768
 Alpha virt. eigenvalues --    1.70033   1.70226   1.70461   1.70643   1.70944
 Alpha virt. eigenvalues --    1.71249   1.71596   1.71845   1.72010   1.72321
 Alpha virt. eigenvalues --    1.72485   1.72791   1.73173   1.73287   1.73671
 Alpha virt. eigenvalues --    1.74064   1.74285   1.74517   1.74606   1.75028
 Alpha virt. eigenvalues --    1.75311   1.75603   1.75856   1.76117   1.76373
 Alpha virt. eigenvalues --    1.76845   1.76888   1.77208   1.77659   1.78149
 Alpha virt. eigenvalues --    1.78489   1.78820   1.78916   1.79271   1.79472
 Alpha virt. eigenvalues --    1.80201   1.80571   1.80681   1.81211   1.81471
 Alpha virt. eigenvalues --    1.81747   1.82404   1.82789   1.83338   1.83581
 Alpha virt. eigenvalues --    1.83863   1.84356   1.84612   1.85238   1.85598
 Alpha virt. eigenvalues --    1.85852   1.86033   1.86610   1.86643   1.86784
 Alpha virt. eigenvalues --    1.87201   1.87380   1.87820   1.88298   1.88990
 Alpha virt. eigenvalues --    1.89061   1.89476   1.89958   1.90242   1.90615
 Alpha virt. eigenvalues --    1.90860   1.91113   1.91393   1.91640   1.91911
 Alpha virt. eigenvalues --    1.92424   1.92757   1.92979   1.93469   1.93732
 Alpha virt. eigenvalues --    1.94317   1.94707   1.94801   1.94931   1.95456
 Alpha virt. eigenvalues --    1.96005   1.96152   1.96890   1.97160   1.97347
 Alpha virt. eigenvalues --    1.97964   1.98299   1.98417   1.98602   1.99251
 Alpha virt. eigenvalues --    1.99346   1.99865   2.00415   2.00615   2.01053
 Alpha virt. eigenvalues --    2.01187   2.01459   2.01988   2.02297   2.02708
 Alpha virt. eigenvalues --    2.02886   2.03426   2.03773   2.04049   2.04401
 Alpha virt. eigenvalues --    2.04508   2.05039   2.05444   2.05649   2.05918
 Alpha virt. eigenvalues --    2.06166   2.06346   2.06644   2.07109   2.07365
 Alpha virt. eigenvalues --    2.07767   2.07869   2.08219   2.08571   2.09103
 Alpha virt. eigenvalues --    2.09330   2.09789   2.10038   2.10137   2.11036
 Alpha virt. eigenvalues --    2.11150   2.11456   2.11660   2.11875   2.12312
 Alpha virt. eigenvalues --    2.12869   2.12991   2.13199   2.13310   2.13779
 Alpha virt. eigenvalues --    2.14300   2.14402   2.14566   2.14799   2.14947
 Alpha virt. eigenvalues --    2.15340   2.15728   2.16105   2.16450   2.16614
 Alpha virt. eigenvalues --    2.17309   2.17470   2.17712   2.18102   2.18637
 Alpha virt. eigenvalues --    2.18849   2.19438   2.19813   2.20050   2.20236
 Alpha virt. eigenvalues --    2.20821   2.21060   2.21277   2.21936   2.22103
 Alpha virt. eigenvalues --    2.22343   2.22785   2.23079   2.23449   2.23796
 Alpha virt. eigenvalues --    2.23895   2.24141   2.24542   2.24571   2.25388
 Alpha virt. eigenvalues --    2.25733   2.26334   2.26523   2.27146   2.27340
 Alpha virt. eigenvalues --    2.27536   2.27690   2.28376   2.28655   2.29112
 Alpha virt. eigenvalues --    2.29426   2.29663   2.30155   2.30316   2.30698
 Alpha virt. eigenvalues --    2.30827   2.31620   2.32097   2.32353   2.32869
 Alpha virt. eigenvalues --    2.33378   2.33443   2.33579   2.34133   2.34627
 Alpha virt. eigenvalues --    2.34823   2.35171   2.35386   2.36249   2.36779
 Alpha virt. eigenvalues --    2.36991   2.37139   2.37602   2.37838   2.38173
 Alpha virt. eigenvalues --    2.38714   2.38760   2.39017   2.39641   2.39762
 Alpha virt. eigenvalues --    2.39973   2.40402   2.40554   2.40726   2.41039
 Alpha virt. eigenvalues --    2.41329   2.41706   2.42449   2.42635   2.43072
 Alpha virt. eigenvalues --    2.43288   2.43479   2.43969   2.44450   2.44993
 Alpha virt. eigenvalues --    2.45179   2.45258   2.45674   2.46258   2.46581
 Alpha virt. eigenvalues --    2.46928   2.47317   2.47605   2.47892   2.48761
 Alpha virt. eigenvalues --    2.50000   2.50149   2.50641   2.51007   2.51239
 Alpha virt. eigenvalues --    2.51786   2.52364   2.52598   2.52912   2.53184
 Alpha virt. eigenvalues --    2.53716   2.54048   2.54126   2.54514   2.55279
 Alpha virt. eigenvalues --    2.55862   2.56027   2.56138   2.56537   2.56936
 Alpha virt. eigenvalues --    2.57251   2.57520   2.57812   2.57990   2.58285
 Alpha virt. eigenvalues --    2.58567   2.58750   2.58863   2.59626   2.59756
 Alpha virt. eigenvalues --    2.59965   2.60262   2.60429   2.60802   2.61171
 Alpha virt. eigenvalues --    2.61613   2.61948   2.62075   2.62308   2.62674
 Alpha virt. eigenvalues --    2.62997   2.63180   2.63605   2.63730   2.64156
 Alpha virt. eigenvalues --    2.64417   2.64748   2.64913   2.65374   2.65477
 Alpha virt. eigenvalues --    2.65633   2.66127   2.66352   2.66817   2.66986
 Alpha virt. eigenvalues --    2.67080   2.67405   2.67536   2.67919   2.68258
 Alpha virt. eigenvalues --    2.68366   2.68874   2.69301   2.69978   2.70081
 Alpha virt. eigenvalues --    2.70379   2.70631   2.70960   2.71143   2.71639
 Alpha virt. eigenvalues --    2.72091   2.72493   2.72637   2.72722   2.72919
 Alpha virt. eigenvalues --    2.73126   2.73712   2.73839   2.74110   2.74185
 Alpha virt. eigenvalues --    2.74624   2.75043   2.75520   2.75921   2.76183
 Alpha virt. eigenvalues --    2.76405   2.76835   2.77003   2.77316   2.77849
 Alpha virt. eigenvalues --    2.78196   2.78317   2.78971   2.79127   2.79335
 Alpha virt. eigenvalues --    2.79980   2.80076   2.80525   2.80706   2.80939
 Alpha virt. eigenvalues --    2.81308   2.81679   2.82027   2.82373   2.82744
 Alpha virt. eigenvalues --    2.83040   2.83331   2.83817   2.84010   2.84519
 Alpha virt. eigenvalues --    2.84941   2.85206   2.85589   2.86012   2.86253
 Alpha virt. eigenvalues --    2.86567   2.86945   2.87242   2.87293   2.87570
 Alpha virt. eigenvalues --    2.88044   2.88455   2.88762   2.89012   2.89116
 Alpha virt. eigenvalues --    2.89657   2.90088   2.90482   2.91108   2.91432
 Alpha virt. eigenvalues --    2.91534   2.92092   2.92389   2.92920   2.93324
 Alpha virt. eigenvalues --    2.93516   2.93735   2.93931   2.94279   2.94514
 Alpha virt. eigenvalues --    2.94849   2.95060   2.95179   2.96010   2.96085
 Alpha virt. eigenvalues --    2.96502   2.96883   2.97463   2.97573   2.97654
 Alpha virt. eigenvalues --    2.98000   2.98388   2.98551   2.98849   2.99151
 Alpha virt. eigenvalues --    2.99267   2.99620   2.99741   3.00060   3.00232
 Alpha virt. eigenvalues --    3.00645   3.01108   3.01301   3.01872   3.02240
 Alpha virt. eigenvalues --    3.02554   3.02773   3.02953   3.03165   3.03521
 Alpha virt. eigenvalues --    3.04235   3.04345   3.04505   3.04907   3.04933
 Alpha virt. eigenvalues --    3.05332   3.05677   3.05845   3.06335   3.06449
 Alpha virt. eigenvalues --    3.07047   3.07312   3.07629   3.07830   3.07985
 Alpha virt. eigenvalues --    3.08208   3.08399   3.08725   3.08824   3.09114
 Alpha virt. eigenvalues --    3.09432   3.09584   3.09999   3.10583   3.10616
 Alpha virt. eigenvalues --    3.10742   3.11086   3.11261   3.11760   3.12055
 Alpha virt. eigenvalues --    3.12252   3.12331   3.12711   3.12972   3.13298
 Alpha virt. eigenvalues --    3.13401   3.14067   3.14294   3.14451   3.14632
 Alpha virt. eigenvalues --    3.14876   3.15151   3.15407   3.15741   3.15972
 Alpha virt. eigenvalues --    3.16191   3.16494   3.16908   3.17055   3.17141
 Alpha virt. eigenvalues --    3.17557   3.17622   3.17697   3.18207   3.18751
 Alpha virt. eigenvalues --    3.19027   3.19197   3.19260   3.19771   3.19820
 Alpha virt. eigenvalues --    3.20171   3.20536   3.20689   3.20778   3.21376
 Alpha virt. eigenvalues --    3.21595   3.21873   3.22140   3.22477   3.22595
 Alpha virt. eigenvalues --    3.22986   3.23039   3.23633   3.23837   3.24219
 Alpha virt. eigenvalues --    3.24347   3.24535   3.24635   3.25050   3.25281
 Alpha virt. eigenvalues --    3.25545   3.25827   3.26186   3.26677   3.26722
 Alpha virt. eigenvalues --    3.26927   3.27074   3.27325   3.27515   3.27721
 Alpha virt. eigenvalues --    3.28430   3.28578   3.28881   3.29070   3.29257
 Alpha virt. eigenvalues --    3.29531   3.29613   3.29999   3.30078   3.30490
 Alpha virt. eigenvalues --    3.30779   3.31063   3.31504   3.31675   3.32045
 Alpha virt. eigenvalues --    3.32076   3.32294   3.32565   3.32880   3.33168
 Alpha virt. eigenvalues --    3.33547   3.33796   3.34011   3.34408   3.34710
 Alpha virt. eigenvalues --    3.34802   3.35125   3.35446   3.35952   3.35986
 Alpha virt. eigenvalues --    3.36286   3.36410   3.36592   3.36892   3.37070
 Alpha virt. eigenvalues --    3.37357   3.37611   3.37712   3.38126   3.38332
 Alpha virt. eigenvalues --    3.38687   3.38828   3.39099   3.39329   3.39488
 Alpha virt. eigenvalues --    3.39797   3.40087   3.40225   3.40524   3.40669
 Alpha virt. eigenvalues --    3.40794   3.41234   3.41439   3.41616   3.41788
 Alpha virt. eigenvalues --    3.41937   3.42300   3.42697   3.42938   3.43581
 Alpha virt. eigenvalues --    3.43737   3.43765   3.43887   3.44244   3.44481
 Alpha virt. eigenvalues --    3.44699   3.45109   3.45246   3.45377   3.45816
 Alpha virt. eigenvalues --    3.46064   3.46122   3.46829   3.47097   3.47355
 Alpha virt. eigenvalues --    3.47653   3.47682   3.47980   3.48448   3.48612
 Alpha virt. eigenvalues --    3.49314   3.49433   3.49593   3.49938   3.50274
 Alpha virt. eigenvalues --    3.50506   3.50734   3.51286   3.51473   3.51608
 Alpha virt. eigenvalues --    3.51951   3.52225   3.52518   3.53210   3.53391
 Alpha virt. eigenvalues --    3.53722   3.54211   3.54429   3.54441   3.54966
 Alpha virt. eigenvalues --    3.55560   3.55758   3.56265   3.56640   3.56902
 Alpha virt. eigenvalues --    3.57213   3.57670   3.57907   3.58368   3.58692
 Alpha virt. eigenvalues --    3.58967   3.59414   3.59633   3.59712   3.59962
 Alpha virt. eigenvalues --    3.60440   3.60744   3.61124   3.61423   3.61937
 Alpha virt. eigenvalues --    3.62260   3.62772   3.63076   3.63365   3.63815
 Alpha virt. eigenvalues --    3.64217   3.64758   3.64942   3.65114   3.65364
 Alpha virt. eigenvalues --    3.65686   3.65873   3.66635   3.66990   3.67102
 Alpha virt. eigenvalues --    3.67630   3.67927   3.68202   3.68647   3.68842
 Alpha virt. eigenvalues --    3.69031   3.69669   3.69790   3.70290   3.70493
 Alpha virt. eigenvalues --    3.70814   3.71198   3.71972   3.72044   3.72296
 Alpha virt. eigenvalues --    3.72676   3.72922   3.73445   3.73759   3.74059
 Alpha virt. eigenvalues --    3.74198   3.74381   3.74962   3.75070   3.75550
 Alpha virt. eigenvalues --    3.75645   3.76021   3.76150   3.76730   3.77042
 Alpha virt. eigenvalues --    3.77315   3.77403   3.78274   3.78612   3.78908
 Alpha virt. eigenvalues --    3.79401   3.80086   3.80375   3.80942   3.81333
 Alpha virt. eigenvalues --    3.82034   3.82488   3.82681   3.83082   3.84002
 Alpha virt. eigenvalues --    3.84501   3.84610   3.85256   3.85908   3.86385
 Alpha virt. eigenvalues --    3.87172   3.87917   3.88132   3.88934   3.89850
 Alpha virt. eigenvalues --    3.90204   3.90633   3.91228   3.91976   3.92165
 Alpha virt. eigenvalues --    3.92772   3.92957   3.93164   3.94215   3.94469
 Alpha virt. eigenvalues --    3.95011   3.95266   3.95988   3.96210   3.96693
 Alpha virt. eigenvalues --    3.97136   3.97421   3.98015   3.98387   3.98813
 Alpha virt. eigenvalues --    3.99357   3.99609   4.00368   4.00561   4.00846
 Alpha virt. eigenvalues --    4.01559   4.02048   4.02409   4.02930   4.03625
 Alpha virt. eigenvalues --    4.04545   4.04898   4.05513   4.05746   4.06416
 Alpha virt. eigenvalues --    4.06701   4.07096   4.07779   4.07971   4.08290
 Alpha virt. eigenvalues --    4.09095   4.09499   4.10000   4.10793   4.11324
 Alpha virt. eigenvalues --    4.12257   4.13178   4.14022   4.14206   4.14549
 Alpha virt. eigenvalues --    4.14812   4.15603   4.15849   4.16423   4.17136
 Alpha virt. eigenvalues --    4.17508   4.18305   4.18434   4.19282   4.19475
 Alpha virt. eigenvalues --    4.19756   4.19964   4.20396   4.20812   4.21117
 Alpha virt. eigenvalues --    4.21591   4.22221   4.22744   4.23341   4.23525
 Alpha virt. eigenvalues --    4.23858   4.25395   4.25591   4.26263   4.26759
 Alpha virt. eigenvalues --    4.27008   4.27333   4.27760   4.28198   4.28805
 Alpha virt. eigenvalues --    4.29218   4.29768   4.30234   4.30888   4.31801
 Alpha virt. eigenvalues --    4.31838   4.32663   4.33044   4.33481   4.34058
 Alpha virt. eigenvalues --    4.34705   4.35184   4.35521   4.35670   4.36087
 Alpha virt. eigenvalues --    4.36721   4.37259   4.37725   4.38274   4.38608
 Alpha virt. eigenvalues --    4.38982   4.39331   4.40317   4.40679   4.40976
 Alpha virt. eigenvalues --    4.41327   4.41657   4.42211   4.42623   4.42786
 Alpha virt. eigenvalues --    4.43283   4.43594   4.44155   4.44750   4.45001
 Alpha virt. eigenvalues --    4.45232   4.45533   4.46149   4.46903   4.47805
 Alpha virt. eigenvalues --    4.47980   4.48673   4.49446   4.49615   4.50325
 Alpha virt. eigenvalues --    4.50688   4.51407   4.53054   4.53279   4.53915
 Alpha virt. eigenvalues --    4.54283   4.55280   4.55614   4.56590   4.56910
 Alpha virt. eigenvalues --    4.57573   4.58459   4.58619   4.59239   4.59988
 Alpha virt. eigenvalues --    4.60783   4.61234   4.61852   4.63058   4.63733
 Alpha virt. eigenvalues --    4.64069   4.65224   4.65586   4.66476   4.67238
 Alpha virt. eigenvalues --    4.67308   4.67972   4.68383   4.69265   4.69512
 Alpha virt. eigenvalues --    4.70242   4.71271   4.71571   4.71911   4.72442
 Alpha virt. eigenvalues --    4.73140   4.73281   4.74289   4.74445   4.74948
 Alpha virt. eigenvalues --    4.75260   4.75473   4.75820   4.77286   4.77559
 Alpha virt. eigenvalues --    4.78432   4.78865   4.79129   4.79722   4.80147
 Alpha virt. eigenvalues --    4.81745   4.82275   4.82537   4.84833   4.85339
 Alpha virt. eigenvalues --    4.85693   4.86329   4.86668   4.87507   4.88219
 Alpha virt. eigenvalues --    4.88815   4.89272   4.90124   4.90326   4.91058
 Alpha virt. eigenvalues --    4.91382   4.92473   4.93351   4.94296   4.94580
 Alpha virt. eigenvalues --    4.95643   4.95825   4.96498   4.96612   4.97602
 Alpha virt. eigenvalues --    4.98212   5.00006   5.00337   5.01402   5.02760
 Alpha virt. eigenvalues --    5.03481   5.03728   5.04333   5.04848   5.06141
 Alpha virt. eigenvalues --    5.06507   5.07407   5.08455   5.08820   5.09663
 Alpha virt. eigenvalues --    5.10402   5.11773   5.12257   5.13593   5.14221
 Alpha virt. eigenvalues --    5.16017   5.16794   5.17059   5.18166   5.18854
 Alpha virt. eigenvalues --    5.19917   5.20385   5.21274   5.21835   5.22164
 Alpha virt. eigenvalues --    5.22692   5.23138   5.23841   5.25008   5.26257
 Alpha virt. eigenvalues --    5.26570   5.27121   5.29118   5.29755   5.30283
 Alpha virt. eigenvalues --    5.31166   5.32337   5.33314   5.33655   5.34890
 Alpha virt. eigenvalues --    5.36435   5.37120   5.37983   5.38462   5.39295
 Alpha virt. eigenvalues --    5.40213   5.41110   5.41996   5.44356   5.46178
 Alpha virt. eigenvalues --    5.46736   5.46962   5.48445   5.49000   5.49788
 Alpha virt. eigenvalues --    5.51379   5.52302   5.53069   5.53976   5.55215
 Alpha virt. eigenvalues --    5.57410   5.57505   5.58489   5.58935   5.59857
 Alpha virt. eigenvalues --    5.60451   5.61544   5.62299   5.63654   5.64786
 Alpha virt. eigenvalues --    5.65272   5.66187   5.68634   5.69289   5.72010
 Alpha virt. eigenvalues --    5.74149   5.74932   5.75573   5.76202   5.78890
 Alpha virt. eigenvalues --    5.80318   5.83238   5.84032   5.84981   5.92249
 Alpha virt. eigenvalues --    5.93807   5.94984   5.95580   5.96053   5.96817
 Alpha virt. eigenvalues --    5.98189   6.00605   6.02977   6.03029   6.04878
 Alpha virt. eigenvalues --    6.08847   6.09358   6.10400   6.11061   6.12450
 Alpha virt. eigenvalues --    6.13730   6.15109   6.17462   6.19889   6.20678
 Alpha virt. eigenvalues --    6.23258   6.26145   6.28442   6.30726   6.31514
 Alpha virt. eigenvalues --    6.32253   6.35571   6.36734   6.40738   6.42686
 Alpha virt. eigenvalues --    6.45239   6.45340   6.49488   6.52207   6.63914
 Alpha virt. eigenvalues --    6.72854   6.73149   6.75148   6.80401   6.84994
 Alpha virt. eigenvalues --    6.88042   6.88861   6.94533   6.98635   7.09846
 Alpha virt. eigenvalues --    7.09898   7.14127   7.14633   7.29603   7.31500
 Alpha virt. eigenvalues --    9.27001   9.55554   9.66129  20.29914  22.31959
 Alpha virt. eigenvalues --   22.41849  22.42924  22.52539  22.53376  22.53801
 Alpha virt. eigenvalues --   22.56467  22.57496  22.58777  22.60961  22.62425
 Alpha virt. eigenvalues --   22.66383  22.68534  22.72784  22.77969  22.85388
 Alpha virt. eigenvalues --   22.87062  22.91292  22.92443  23.00443  23.03285
 Alpha virt. eigenvalues --   23.05167  23.08842  23.13148  23.20352  23.22203
 Alpha virt. eigenvalues --   23.24990  23.29279  23.31070  23.33712  23.40801
 Alpha virt. eigenvalues --   23.43865  23.45362  23.47079  23.54741  23.54847
 Alpha virt. eigenvalues --   23.60846  23.73117  23.78085  23.79897  23.88083
 Alpha virt. eigenvalues --   32.51440  32.79691  32.97734  33.04695  33.11360
 Alpha virt. eigenvalues --   33.20489  43.91996  43.92471  43.92997  43.96157
          Condensed to atoms (all electrons):
 Mulliken charges:
               1
     1  C   -0.364923
     2  C    0.127335
     3  N   -0.213944
     4  C   -0.184616
     5  C    0.062602
     6  N   -0.073898
     7  C   -0.329157
     8  C   -0.157316
     9  S    0.040809
    10  C   -0.390807
    11  Fe  -0.397252
    12  C   -0.468866
    13  C   -0.424936
    14  C   -0.454547
    15  C   -0.472932
    16  N    0.043865
    17  C    0.282013
    18  C   -0.012150
    19  C   -0.026139
    20  C    0.194317
    21  C   -0.394323
    22  C   -0.424928
    23  C   -0.220025
    24  C    0.298587
    25  O   -0.375801
    26  O   -0.289271
    27  N    0.048120
    28  C    0.167383
    29  C   -0.029783
    30  C    0.050298
    31  C    0.206657
    32  C   -0.388987
    33  C   -0.240546
    34  C   -0.260274
    35  N    0.047451
    36  C    0.289396
    37  C   -0.089264
    38  C    0.051116
    39  C    0.142827
    40  C   -0.376376
    41  C   -0.132369
    42  C   -0.424437
    43  N   -0.085266
    44  C    0.229192
    45  C   -0.056495
    46  C    0.202122
    47  C    0.188196
    48  C   -0.417845
    49  C   -0.529809
    50  C   -0.105820
    51  C    0.259839
    52  O   -0.340373
    53  O   -0.371757
    54  H    0.138416
    55  H    0.154942
    56  H    0.147721
    57  H    0.114535
    58  H    0.140290
    59  H    0.099543
    60  H    0.125708
    61  H    0.132743
    62  H    0.121114
    63  H    0.146937
    64  H    0.149701
    65  H    0.224276
    66  H    0.140038
    67  H    0.173332
    68  H    0.133350
    69  H    0.115861
    70  H    0.127423
    71  H    0.143115
    72  H    0.346753
    73  H    0.094892
    74  H    0.104895
    75  H    0.148648
    76  H    0.137693
    77  H    0.132671
    78  H    0.336045
    79  H    0.144485
    80  H    0.137992
    81  H    0.146817
    82  H    0.143041
    83  H    0.125717
    84  H    0.143862
    85  H    0.095297
    86  H    0.163242
    87  H    0.085358
    88  H    0.129197
    89  H    0.145968
    90  H    0.127696
    91  H    0.144020
    92  H    0.130698
    93  H    0.123692
    94  H    0.120901
    95  H    0.125653
    96  H    0.115353
    97  H    0.148666
    98  H    0.138414
    99  H    0.126395
 Sum of Mulliken charges =  -0.00000
 Mulliken charges with hydrogens summed into heavy atoms:
               1
     1  C    0.052829
     2  C    0.127335
     3  N    0.010332
     4  C   -0.044577
     5  C    0.235934
     6  N   -0.073898
     7  C    0.025211
     8  C    0.101136
     9  S    0.040809
    10  C    0.050272
    11  Fe  -0.397252
    12  C   -0.373974
    13  C   -0.329639
    14  C   -0.369190
    15  C   -0.309690
    16  N    0.043865
    17  C    0.282013
    18  C   -0.012150
    19  C   -0.026139
    20  C    0.194317
    21  C    0.018296
    22  C   -0.171385
    23  C    0.050340
    24  C    0.298587
    25  O   -0.375801
    26  O    0.046774
    27  N    0.048120
    28  C    0.167383
    29  C   -0.029783
    30  C    0.050298
    31  C    0.206657
    32  C    0.009423
    33  C   -0.125193
    34  C   -0.013719
    35  N    0.047451
    36  C    0.289396
    37  C   -0.089264
    38  C    0.051116
    39  C    0.142827
    40  C    0.026485
    41  C   -0.005974
    42  C   -0.137357
    43  N   -0.085266
    44  C    0.229192
    45  C   -0.056495
    46  C    0.202122
    47  C    0.188196
    48  C    0.011449
    49  C   -0.259272
    50  C    0.143391
    51  C    0.259839
    52  O    0.006380
    53  O   -0.371757
 Electronic spatial extent (au):  <R**2>=          34372.8590
 Charge=             -0.0000 electrons
 Dipole moment (field-independent basis, Debye):
    X=              3.6432    Y=              0.8937    Z=              1.2214  Tot=              3.9450
 Quadrupole moment (field-independent basis, Debye-Ang):
   XX=           -329.7063   YY=           -363.7157   ZZ=           -293.0056
   XY=            -23.9170   XZ=              9.2870   YZ=             14.2175
 Traceless Quadrupole moment (field-independent basis, Debye-Ang):
   XX=             -0.8971   YY=            -34.9065   ZZ=             35.8036
   XY=            -23.9170   XZ=              9.2870   YZ=             14.2175
 Octapole moment (field-independent basis, Debye-Ang**2):
  XXX=             74.2097  YYY=            -43.0393  ZZZ=            126.8073  XYY=            339.8974
  XXY=            144.1639  XXZ=            -83.8815  XZZ=             18.3858  YZZ=              1.0459
  YYZ=            -16.0625  XYZ=           -134.2819
 Hexadecapole moment (field-independent basis, Debye-Ang**3):
 XXXX=         -23508.7678 YYYY=         -17647.4710 ZZZZ=          -4837.1097 XXXY=          -1631.5207
 XXXZ=            453.4126 YYYX=           -610.1015 YYYZ=            419.1789 ZZZX=            168.3154
 ZZZY=            -92.0576 XXYY=          -9049.0143 XXZZ=          -5078.7513 YYZZ=          -3730.8527
 XXYZ=            608.1531 YYXZ=             84.7261 ZZXY=            -37.2427
 N-N= 8.858079178544D+03 E-N=-2.683983377035D+04  KE= 3.867394119430D+03
 ******************************Gaussian NBO Version 3.1******************************
             N A T U R A L   A T O M I C   O R B I T A L   A N D
          N A T U R A L   B O N D   O R B I T A L   A N A L Y S I S
 ******************************Gaussian NBO Version 3.1******************************
       /RESON  / : Allow strongly delocalized NBO set

 Analyzing the SCF density

 Job title: 2pcb_II_S_nbo                                                   

 Storage needed:  11310604 in NPA,  15054547 in NBO (2147433257 available)
 GSVD:  LWork=     1723567 too small for GESVD, short by     2339678 words or     2339678 for optimal perf.


 NATURAL POPULATIONS:  Natural atomic orbital occupancies 
                                                          
   NAO  Atom  No  lang   Type(AO)    Occupancy      Energy
 ----------------------------------------------------------
     1    C    1  S      Cor( 1S)     1.99938     -10.07603
     2    C    1  S      Val( 2S)     1.09705      -0.30674
     3    C    1  S      Ryd( 3S)     0.00066       1.04449
     4    C    1  S      Ryd( 4S)     0.00011       1.87383
     5    C    1  S      Ryd( 5S)     0.00000      21.70832
     6    C    1  px     Val( 2p)     1.20856      -0.12366
     7    C    1  px     Ryd( 3p)     0.00074       0.73768
     8    C    1  px     Ryd( 4p)     0.00012       1.54540
     9    C    1  py     Val( 2p)     1.21438      -0.12309
    10    C    1  py     Ryd( 3p)     0.00046       0.72908
    11    C    1  py     Ryd( 4p)     0.00011       1.56130
    12    C    1  pz     Val( 2p)     1.11354      -0.11645
    13    C    1  pz     Ryd( 3p)     0.00050       0.74708
    14    C    1  pz     Ryd( 4p)     0.00025       1.56083
    15    C    1  dxy    Ryd( 4d)     0.00034       2.81930
    16    C    1  dxy    Ryd( 3d)     0.00008       2.68616
    17    C    1  dxz    Ryd( 4d)     0.00055       3.10443
    18    C    1  dxz    Ryd( 3d)     0.00013       2.40282
    19    C    1  dyz    Ryd( 4d)     0.00064       3.07823
    20    C    1  dyz    Ryd( 3d)     0.00010       2.31675
    21    C    1  dx2y2  Ryd( 4d)     0.00073       3.04627
    22    C    1  dx2y2  Ryd( 3d)     0.00003       2.26937
    23    C    1  dz2    Ryd( 4d)     0.00048       3.28865
    24    C    1  dz2    Ryd( 3d)     0.00003       2.45948
    25    C    1  f(0)   Ryd( 4f)     0.00003       3.44945
    26    C    1  f(C1)  Ryd( 4f)     0.00008       3.57917
    27    C    1  f(S1)  Ryd( 4f)     0.00010       3.62823
    28    C    1  f(C2)  Ryd( 4f)     0.00003       3.35463
    29    C    1  f(S2)  Ryd( 4f)     0.00001       3.44210
    30    C    1  f(C3)  Ryd( 4f)     0.00007       3.57405
    31    C    1  f(S3)  Ryd( 4f)     0.00003       3.36796

    32    C    2  S      Cor( 1S)     1.99914     -10.11882
    33    C    2  S      Val( 2S)     0.89559      -0.20990
    34    C    2  S      Ryd( 3S)     0.00117       1.52430
    35    C    2  S      Ryd( 4S)     0.00003       1.81442
    36    C    2  S      Ryd( 5S)     0.00001      21.23958
    37    C    2  px     Val( 2p)     0.93087      -0.07127
    38    C    2  px     Ryd( 3p)     0.00313       1.08663
    39    C    2  px     Ryd( 4p)     0.00026       1.64050
    40    C    2  py     Val( 2p)     0.99306      -0.09418
    41    C    2  py     Ryd( 3p)     0.00308       0.94403
    42    C    2  py     Ryd( 4p)     0.00035       1.51735
    43    C    2  pz     Val( 2p)     1.06847      -0.07688
    44    C    2  pz     Ryd( 3p)     0.00329       1.40917
    45    C    2  pz     Ryd( 4p)     0.00029       2.21363
    46    C    2  dxy    Ryd( 3d)     0.00057       1.54440
    47    C    2  dxy    Ryd( 4d)     0.00033       3.99962
    48    C    2  dxz    Ryd( 3d)     0.00090       1.63652
    49    C    2  dxz    Ryd( 4d)     0.00062       3.64446
    50    C    2  dyz    Ryd( 3d)     0.00076       1.37042
    51    C    2  dyz    Ryd( 4d)     0.00055       3.50749
    52    C    2  dx2y2  Ryd( 3d)     0.00039       1.07211
    53    C    2  dx2y2  Ryd( 4d)     0.00039       3.30896
    54    C    2  dz2    Ryd( 3d)     0.00103       1.76670
    55    C    2  dz2    Ryd( 4d)     0.00071       3.76598
    56    C    2  f(0)   Ryd( 4f)     0.00011       4.16557
    57    C    2  f(C1)  Ryd( 4f)     0.00019       3.95758
    58    C    2  f(S1)  Ryd( 4f)     0.00022       3.80485
    59    C    2  f(C2)  Ryd( 4f)     0.00001       3.46860
    60    C    2  f(S2)  Ryd( 4f)     0.00010       3.85897
    61    C    2  f(C3)  Ryd( 4f)     0.00009       3.55061
    62    C    2  f(S3)  Ryd( 4f)     0.00008       3.63999

    63    N    3  S      Cor( 1S)     1.99936     -14.24289
    64    N    3  S      Val( 2S)     1.23623      -0.57835
    65    N    3  S      Ryd( 3S)     0.00096       1.94960
    66    N    3  S      Ryd( 4S)     0.00005       2.20094
    67    N    3  S      Ryd( 5S)     0.00000      30.73394
    68    N    3  px     Val( 2p)     1.39893      -0.26895
    69    N    3  px     Ryd( 3p)     0.00192       0.97839
    70    N    3  px     Ryd( 4p)     0.00029       2.58969
    71    N    3  py     Val( 2p)     1.47567      -0.27596
    72    N    3  py     Ryd( 3p)     0.00216       0.82026
    73    N    3  py     Ryd( 4p)     0.00039       2.47738
    74    N    3  pz     Val( 2p)     1.34669      -0.27014
    75    N    3  pz     Ryd( 3p)     0.00220       1.12264
    76    N    3  pz     Ryd( 4p)     0.00034       3.38354
    77    N    3  dxy    Ryd( 3d)     0.00284       1.71352
    78    N    3  dxy    Ryd( 4d)     0.00005       4.81848
    79    N    3  dxz    Ryd( 3d)     0.00161       1.76629
    80    N    3  dxz    Ryd( 4d)     0.00020       4.87484
    81    N    3  dyz    Ryd( 3d)     0.00123       1.61932
    82    N    3  dyz    Ryd( 4d)     0.00014       4.75441
    83    N    3  dx2y2  Ryd( 3d)     0.00093       1.45349
    84    N    3  dx2y2  Ryd( 4d)     0.00007       4.58383
    85    N    3  dz2    Ryd( 3d)     0.00376       1.83568
    86    N    3  dz2    Ryd( 4d)     0.00007       4.99783
    87    N    3  f(0)   Ryd( 4f)     0.00012       5.00636
    88    N    3  f(C1)  Ryd( 4f)     0.00023       5.05202
    89    N    3  f(S1)  Ryd( 4f)     0.00024       4.81710
    90    N    3  f(C2)  Ryd( 4f)     0.00002       4.38472
    91    N    3  f(S2)  Ryd( 4f)     0.00011       4.71118
    92    N    3  f(C3)  Ryd( 4f)     0.00023       4.45733
    93    N    3  f(S3)  Ryd( 4f)     0.00017       4.57443

    94    C    4  S      Cor( 1S)     1.99896     -10.09091
    95    C    4  S      Val( 2S)     0.94379      -0.19898
    96    C    4  S      Ryd( 4S)     0.00192       1.51761
    97    C    4  S      Ryd( 3S)     0.00012       1.40678
    98    C    4  S      Ryd( 5S)     0.00001      21.72743
    99    C    4  px     Val( 2p)     1.07528      -0.07236
   100    C    4  px     Ryd( 3p)     0.00256       1.00326
   101    C    4  px     Ryd( 4p)     0.00074       1.45541
   102    C    4  py     Val( 2p)     1.07759      -0.08993
   103    C    4  py     Ryd( 3p)     0.00237       0.87437
   104    C    4  py     Ryd( 4p)     0.00071       1.40138
   105    C    4  pz     Val( 2p)     0.96156      -0.05163
   106    C    4  pz     Ryd( 3p)     0.00288       1.03790
   107    C    4  pz     Ryd( 4p)     0.00087       1.70532
   108    C    4  dxy    Ryd( 3d)     0.00080       1.82725
   109    C    4  dxy    Ryd( 4d)     0.00011       3.60653
   110    C    4  dxz    Ryd( 3d)     0.00089       1.78595
   111    C    4  dxz    Ryd( 4d)     0.00042       3.52315
   112    C    4  dyz    Ryd( 3d)     0.00083       1.63482
   113    C    4  dyz    Ryd( 4d)     0.00028       3.36001
   114    C    4  dx2y2  Ryd( 3d)     0.00074       1.42848
   115    C    4  dx2y2  Ryd( 4d)     0.00006       3.01567
   116    C    4  dz2    Ryd( 3d)     0.00126       1.85010
   117    C    4  dz2    Ryd( 4d)     0.00042       3.64998
   118    C    4  f(0)   Ryd( 4f)     0.00008       4.12584
   119    C    4  f(C1)  Ryd( 4f)     0.00005       3.93999
   120    C    4  f(S1)  Ryd( 4f)     0.00005       3.74083
   121    C    4  f(C2)  Ryd( 4f)     0.00004       3.56724
   122    C    4  f(S2)  Ryd( 4f)     0.00007       3.87410
   123    C    4  f(C3)  Ryd( 4f)     0.00012       3.47805
   124    C    4  f(S3)  Ryd( 4f)     0.00009       3.74451

   125    C    5  S      Cor( 1S)     1.99932     -10.13034
   126    C    5  S      Val( 2S)     0.89607      -0.18138
   127    C    5  S      Ryd( 3S)     0.00240       1.35173
   128    C    5  S      Ryd( 4S)     0.00047       1.55645
   129    C    5  S      Ryd( 5S)     0.00001      21.81608
   130    C    5  px     Val( 2p)     1.06089      -0.09170
   131    C    5  px     Ryd( 3p)     0.00367       1.15233
   132    C    5  px     Ryd( 4p)     0.00080       1.34558
   133    C    5  py     Val( 2p)     1.02298      -0.10230
   134    C    5  py     Ryd( 3p)     0.00377       1.04755
   135    C    5  py     Ryd( 4p)     0.00076       1.29170
   136    C    5  pz     Val( 2p)     0.81446      -0.03136
   137    C    5  pz     Ryd( 3p)     0.00432       1.21924
   138    C    5  pz     Ryd( 4p)     0.00070       1.49465
   139    C    5  dxy    Ryd( 3d)     0.00060       1.75112
   140    C    5  dxy    Ryd( 4d)     0.00029       3.80122
   141    C    5  dxz    Ryd( 3d)     0.00099       1.63227
   142    C    5  dxz    Ryd( 4d)     0.00053       3.78213
   143    C    5  dyz    Ryd( 3d)     0.00070       1.51960
   144    C    5  dyz    Ryd( 4d)     0.00058       3.65173
   145    C    5  dx2y2  Ryd( 3d)     0.00083       1.16981
   146    C    5  dx2y2  Ryd( 4d)     0.00019       3.36042
   147    C    5  dz2    Ryd( 3d)     0.00061       1.89626
   148    C    5  dz2    Ryd( 4d)     0.00070       4.06297
   149    C    5  f(0)   Ryd( 4f)     0.00007       4.10015
   150    C    5  f(C1)  Ryd( 4f)     0.00004       4.01383
   151    C    5  f(S1)  Ryd( 4f)     0.00004       3.84041
   152    C    5  f(C2)  Ryd( 4f)     0.00002       3.58350
   153    C    5  f(S2)  Ryd( 4f)     0.00009       3.98158
   154    C    5  f(C3)  Ryd( 4f)     0.00007       3.50245
   155    C    5  f(S3)  Ryd( 4f)     0.00007       3.78180

   156    N    6  S      Cor( 1S)     1.99936     -14.18039
   157    N    6  S      Val( 2S)     1.28930      -0.53053
   158    N    6  S      Ryd( 3S)     0.00451       1.59301
   159    N    6  S      Ryd( 4S)     0.00014       3.74635
   160    N    6  S      Ryd( 5S)     0.00000      32.07038
   161    N    6  px     Val( 2p)     1.23642      -0.18070
   162    N    6  px     Ryd( 3p)     0.01032       0.96582
   163    N    6  px     Ryd( 4p)     0.00021       3.28031
   164    N    6  py     Val( 2p)     1.26718      -0.18791
   165    N    6  py     Ryd( 3p)     0.00933       0.86437
   166    N    6  py     Ryd( 4p)     0.00023       3.01115
   167    N    6  pz     Val( 2p)     1.49711      -0.21028
   168    N    6  pz     Ryd( 3p)     0.01188       1.42454
   169    N    6  pz     Ryd( 4p)     0.00030       3.80831
   170    N    6  dxy    Ryd( 3d)     0.00329       1.67684
   171    N    6  dxy    Ryd( 4d)     0.00012       4.93348
   172    N    6  dxz    Ryd( 3d)     0.00594       1.79048
   173    N    6  dxz    Ryd( 4d)     0.00013       5.02756
   174    N    6  dyz    Ryd( 3d)     0.00490       1.68346
   175    N    6  dyz    Ryd( 4d)     0.00011       4.93411
   176    N    6  dx2y2  Ryd( 3d)     0.00062       1.49156
   177    N    6  dx2y2  Ryd( 4d)     0.00020       4.78320
   178    N    6  dz2    Ryd( 3d)     0.00231       1.75296
   179    N    6  dz2    Ryd( 4d)     0.00028       4.90801
   180    N    6  f(0)   Ryd( 4f)     0.00012       4.79329
   181    N    6  f(C1)  Ryd( 4f)     0.00004       4.83129
   182    N    6  f(S1)  Ryd( 4f)     0.00004       4.63119
   183    N    6  f(C2)  Ryd( 4f)     0.00005       4.70254
   184    N    6  f(S2)  Ryd( 4f)     0.00020       4.95449
   185    N    6  f(C3)  Ryd( 4f)     0.00022       4.57060
   186    N    6  f(S3)  Ryd( 4f)     0.00016       4.61762

   187    C    7  S      Cor( 1S)     1.99945     -10.04058
   188    C    7  S      Val( 2S)     1.09576      -0.28026
   189    C    7  S      Ryd( 3S)     0.00058       1.17603
   190    C    7  S      Ryd( 4S)     0.00037       2.50727
   191    C    7  S      Ryd( 5S)     0.00000      21.50870
   192    C    7  px     Val( 2p)     1.10427      -0.08582
   193    C    7  px     Ryd( 3p)     0.00086       1.00918
   194    C    7  px     Ryd( 4p)     0.00033       1.67533
   195    C    7  py     Val( 2p)     1.19253      -0.09409
   196    C    7  py     Ryd( 3p)     0.00150       1.02129
   197    C    7  py     Ryd( 4p)     0.00023       1.35795
   198    C    7  pz     Val( 2p)     1.21858      -0.09144
   199    C    7  pz     Ryd( 3p)     0.00107       1.17533
   200    C    7  pz     Ryd( 4p)     0.00035       1.69881
   201    C    7  dxy    Ryd( 3d)     0.00135       1.65554
   202    C    7  dxy    Ryd( 4d)     0.00018       3.12911
   203    C    7  dxz    Ryd( 3d)     0.00179       1.65128
   204    C    7  dxz    Ryd( 4d)     0.00013       3.13775
   205    C    7  dyz    Ryd( 3d)     0.00170       1.60148
   206    C    7  dyz    Ryd( 4d)     0.00007       3.08674
   207    C    7  dx2y2  Ryd( 3d)     0.00087       1.48028
   208    C    7  dx2y2  Ryd( 4d)     0.00013       3.02126
   209    C    7  dz2    Ryd( 3d)     0.00132       1.49660
   210    C    7  dz2    Ryd( 4d)     0.00009       3.11160
   211    C    7  f(0)   Ryd( 4f)     0.00005       3.51837
   212    C    7  f(C1)  Ryd( 4f)     0.00009       3.72112
   213    C    7  f(S1)  Ryd( 4f)     0.00002       3.40447
   214    C    7  f(C2)  Ryd( 4f)     0.00005       3.54099
   215    C    7  f(S2)  Ryd( 4f)     0.00012       3.72269
   216    C    7  f(C3)  Ryd( 4f)     0.00002       3.62419
   217    C    7  f(S3)  Ryd( 4f)     0.00006       3.56385

   218    C    8  S      Cor( 1S)     1.99936     -10.09734
   219    C    8  S      Val( 2S)     1.11057      -0.33519
   220    C    8  S      Ryd( 3S)     0.00200       1.72129
   221    C    8  S      Ryd( 4S)     0.00055       2.03041
   222    C    8  S      Ryd( 5S)     0.00000      21.31013
   223    C    8  px     Val( 2p)     1.15266      -0.11560
   224    C    8  px     Ryd( 3p)     0.00080       1.01605
   225    C    8  px     Ryd( 4p)     0.00020       1.40836
   226    C    8  py     Val( 2p)     1.04471      -0.14001
   227    C    8  py     Ryd( 3p)     0.00161       1.10426
   228    C    8  py     Ryd( 4p)     0.00027       1.28514
   229    C    8  pz     Val( 2p)     1.20645      -0.11900
   230    C    8  pz     Ryd( 3p)     0.00115       1.18053
   231    C    8  pz     Ryd( 4p)     0.00074       1.92890
   232    C    8  dxy    Ryd( 3d)     0.00181       1.41106
   233    C    8  dxy    Ryd( 4d)     0.00020       3.31989
   234    C    8  dxz    Ryd( 3d)     0.00146       1.33681
   235    C    8  dxz    Ryd( 4d)     0.00016       3.20455
   236    C    8  dyz    Ryd( 3d)     0.00190       1.23701
   237    C    8  dyz    Ryd( 4d)     0.00017       3.11262
   238    C    8  dx2y2  Ryd( 3d)     0.00292       1.32505
   239    C    8  dx2y2  Ryd( 4d)     0.00019       3.24797
   240    C    8  dz2    Ryd( 3d)     0.00205       1.48913
   241    C    8  dz2    Ryd( 4d)     0.00021       3.43645
   242    C    8  f(0)   Ryd( 4f)     0.00024       3.84696
   243    C    8  f(C1)  Ryd( 4f)     0.00002       3.38615
   244    C    8  f(S1)  Ryd( 4f)     0.00003       3.27820
   245    C    8  f(C2)  Ryd( 4f)     0.00014       3.49966
   246    C    8  f(S2)  Ryd( 4f)     0.00005       3.62956
   247    C    8  f(C3)  Ryd( 4f)     0.00010       3.42798
   248    C    8  f(S3)  Ryd( 4f)     0.00014       3.67393

   249    S    9  S      Cor( 1S)     2.00000     -87.70352
   250    S    9  S      Cor( 2S)     1.99907      -9.06656
   251    S    9  S      Val( 3S)     1.53939      -0.66446
   252    S    9  S      Ryd( 4S)     0.00429       1.99669
   253    S    9  S      Ryd( 5S)     0.00002      18.25880
   254    S    9  px     Cor( 2p)     1.99993      -5.92202
   255    S    9  px     Val( 3p)     1.68935      -0.22277
   256    S    9  px     Ryd( 4p)     0.00768       0.72371
[...]
  1710. RY*(   5) H  77                  0.00001     2.81017   
  1711. RY*(   1) H  78                  0.00071     1.74236   
  1712. RY*(   2) H  78                  0.00049     1.91476   
  1713. RY*(   3) H  78                  0.00028     2.21587   
  1714. RY*(   4) H  78                  0.00026     1.49998   
  1715. RY*(   5) H  78                  0.00001     3.18786   
  1716. RY*(   1) H  79                  0.00062     1.08842   
  1717. RY*(   2) H  79                  0.00017     1.84787   
  1718. RY*(   3) H  79                  0.00007     2.18085   
  1719. RY*(   4) H  79                  0.00004     1.95364   
  1720. RY*(   5) H  79                  0.00000     2.94763   
  1721. RY*(   1) H  80                  0.00078     1.07002   
  1722. RY*(   2) H  80                  0.00015     1.67122   
  1723. RY*(   3) H  80                  0.00008     2.16070   
  1724. RY*(   4) H  80                  0.00004     2.05101   
  1725. RY*(   5) H  80                  0.00001     2.95232   
  1726. RY*(   1) H  81                  0.00150     0.86579   
  1727. RY*(   2) H  81                  0.00019     1.94204   
  1728. RY*(   3) H  81                  0.00008     2.16527   
  1729. RY*(   4) H  81                  0.00006     2.16928   
  1730. RY*(   5) H  81                  0.00000     3.01567   
  1731. RY*(   1) H  82                  0.00080     1.03207   
  1732. RY*(   2) H  82                  0.00016     1.71993   
  1733. RY*(   3) H  82                  0.00007     2.15464   
  1734. RY*(   4) H  82                  0.00004     2.06996   
  1735. RY*(   5) H  82                  0.00001     2.88645   
  1736. RY*(   1) H  83                  0.00047     1.35435   
  1737. RY*(   2) H  83                  0.00018     1.91972   
  1738. RY*(   3) H  83                  0.00007     2.16858   
  1739. RY*(   4) H  83                  0.00001     2.19117   
  1740. RY*(   5) H  83                  0.00001     2.49472   
  1741. RY*(   1) H  84                  0.00073     0.95056   
  1742. RY*(   2) H  84                  0.00017     1.88998   
  1743. RY*(   3) H  84                  0.00007     2.16767   
  1744. RY*(   4) H  84                  0.00005     2.07984   
  1745. RY*(   5) H  84                  0.00001     2.91143   
  1746. RY*(   1) H  85                  0.00211     0.70850   
  1747. RY*(   2) H  85                  0.00029     2.17049   
  1748. RY*(   3) H  85                  0.00024     2.25330   
  1749. RY*(   4) H  85                  0.00013     3.01855   
  1750. RY*(   5) H  85                  0.00001     3.25423   
  1751. RY*(   1) H  86                  0.00185     0.81971   
  1752. RY*(   2) H  86                  0.00032     2.17379   
  1753. RY*(   3) H  86                  0.00020     2.27647   
  1754. RY*(   4) H  86                  0.00011     3.03768   
  1755. RY*(   5) H  86                  0.00002     3.19180   
  1756. RY*(   1) H  87                  0.00171     0.87883   
  1757. RY*(   2) H  87                  0.00035     2.09867   
  1758. RY*(   3) H  87                  0.00026     2.32284   
  1759. RY*(   4) H  87                  0.00014     3.07442   
  1760. RY*(   5) H  87                  0.00003     3.41632   
  1761. RY*(   1) H  88                  0.00066     0.95247   
  1762. RY*(   2) H  88                  0.00020     1.79208   
  1763. RY*(   3) H  88                  0.00010     2.02248   
  1764. RY*(   4) H  88                  0.00005     2.17718   
  1765. RY*(   5) H  88                  0.00001     2.97422   
  1766. RY*(   1) H  89                  0.00102     0.97036   
  1767. RY*(   2) H  89                  0.00016     1.70466   
  1768. RY*(   3) H  89                  0.00008     2.15445   
  1769. RY*(   4) H  89                  0.00004     2.04370   
  1770. RY*(   5) H  89                  0.00001     2.99638   
  1771. RY*(   1) H  90                  0.00054     1.07836   
  1772. RY*(   2) H  90                  0.00017     1.94680   
  1773. RY*(   3) H  90                  0.00007     2.17210   
  1774. RY*(   4) H  90                  0.00004     1.94732   
  1775. RY*(   5) H  90                  0.00001     2.89734   
  1776. RY*(   1) H  91                  0.00087     0.97722   
  1777. RY*(   2) H  91                  0.00016     1.74210   
  1778. RY*(   3) H  91                  0.00006     2.14394   
  1779. RY*(   4) H  91                  0.00004     2.03564   
  1780. RY*(   5) H  91                  0.00001     2.95177   
  1781. RY*(   1) H  92                  0.00074     0.89479   
  1782. RY*(   2) H  92                  0.00016     1.81359   
  1783. RY*(   3) H  92                  0.00006     2.02827   
  1784. RY*(   4) H  92                  0.00006     2.18999   
  1785. RY*(   5) H  92                  0.00001     2.95372   
  1786. RY*(   1) H  93                  0.00046     1.29616   
  1787. RY*(   2) H  93                  0.00018     1.91884   
  1788. RY*(   3) H  93                  0.00007     2.15076   
  1789. RY*(   4) H  93                  0.00001     2.20354   
  1790. RY*(   5) H  93                  0.00001     2.52708   
  1791. RY*(   1) H  94                  0.00100     1.04762   
  1792. RY*(   2) H  94                  0.00026     1.96581   
  1793. RY*(   3) H  94                  0.00017     2.06876   
  1794. RY*(   4) H  94                  0.00010     2.46111   
  1795. RY*(   5) H  94                  0.00001     3.14633   
  1796. RY*(   1) H  95                  0.00050     1.36066   
  1797. RY*(   2) H  95                  0.00027     1.22887   
  1798. RY*(   3) H  95                  0.00018     2.11291   
  1799. RY*(   4) H  95                  0.00005     2.52622   
  1800. RY*(   5) H  95                  0.00000     3.11009   
  1801. RY*(   1) H  96                  0.00099     1.22169   
  1802. RY*(   2) H  96                  0.00022     1.69062   
  1803. RY*(   3) H  96                  0.00014     2.25746   
  1804. RY*(   4) H  96                  0.00011     2.57193   
  1805. RY*(   5) H  96                  0.00001     3.09649   
  1806. RY*(   1) H  97                  0.00221     1.15109   
  1807. RY*(   2) H  97                  0.00034     1.61331   
  1808. RY*(   3) H  97                  0.00010     2.08617   
  1809. RY*(   4) H  97                  0.00006     2.39283   
  1810. RY*(   5) H  97                  0.00002     3.01824   
  1811. RY*(   1) H  98                  0.00182     1.01716   
  1812. RY*(   2) H  98                  0.00037     1.62522   
  1813. RY*(   3) H  98                  0.00010     2.23034   
  1814. RY*(   4) H  98                  0.00004     2.34677   
  1815. RY*(   5) H  98                  0.00001     2.97992   
  1816. RY*(   1) H  99                  0.00228     1.29506   
  1817. RY*(   2) H  99                  0.00020     1.64695   
  1818. RY*(   3) H  99                  0.00013     2.43011   
  1819. RY*(   4) H  99                  0.00008     2.50341   
  1820. RY*(   5) H  99                  0.00001     3.09532   
  1847. BD*(   1) C  12 - C  17          0.02025     0.57301   
  1848. BD*(   2) C  12 - C  17          0.41832     0.04504  1920(v),1868(v),1865(v)
                                                    1861(r),499(g),631(g),633(g)
  1849. BD*(   1) C  12 - C  47          0.02156     0.58860   
  1850. BD*(   1) C  12 - H  73          0.01406     0.44137   
  1851. BD*(   1) C  13 - C  20          0.02067     0.58056   
  1852. BD*(   1) C  13 - C  28          0.02104     0.60487   
  1853. BD*(   2) C  13 - C  28          0.39972     0.05279  1889(v),1865(v),202(v)
                                                    1856(r),525(g),919(g),192(r)
  1854. BD*(   1) C  13 - H  85          0.01571     0.44927   
  1855. BD*(   1) C  14 - C  31          0.02148     0.62572   
  1856. BD*(   2) C  14 - C  31          0.39617     0.05794  1889(v),204(v),202(v)
                                                    1897(r),551(g),1853(r)
                                                    997(g),995(g)
  1857. BD*(   1) C  14 - C  36          0.02244     0.62993   
  1858. BD*(   1) C  14 - H  87          0.02080     0.45921   
  1859. BD*(   1) C  15 - C  39          0.02102     0.58150   
  1860. BD*(   1) C  15 - C  44          0.02294     0.57593   
  1861. BD*(   2) C  15 - C  44          0.43573     0.04558  1903(v),1923(v),1920(v)
                                                    1848(r),577(g),1914(r)
                                                    1335(g),1921(g),1862(g)
                                                    192(r)
  1862. BD*(   1) C  15 - H  86          0.01601     0.45723   
  1863. BD*(   1) N  16 - C  17          0.02701     0.47579   
  1864. BD*(   1) N  16 - C  20          0.02791     0.48365   
  1865. BD*(   2) N  16 - C  20          0.60771     0.00647  1853(v),1848(v),1868(v)
                                                    1903(r),192(r),709(g),603(g)
                                                    191(r),711(g),1839(r)
                                                    1833(r),193(r),1843(r)
                                                    194(r),195(r)
  1866. BD*(   1) C  17 - C  18          0.03262     0.48982   
  1867. BD*(   1) C  18 - C  19          0.01824     0.63965   
  1868. BD*(   2) C  18 - C  19          0.24748     0.07323  1848(v),1865(v),1875(v)
                                                    1872(v)
  1869. BD*(   1) C  18 - C  22          0.02694     0.35316   
  1870. BD*(   1) C  19 - C  20          0.03397     0.48796   
  1871. BD*(   1) C  19 - C  21          0.01838     0.36317   
  1872. BD*(   1) C  21 - H  82          0.00906     0.40821   
  1873. BD*(   1) C  21 - H  83          0.00545     0.41457   
  1874. BD*(   1) C  21 - H  84          0.00596     0.41448   
  1875. BD*(   1) C  22 - C  23          0.02034     0.33676   
  1876. BD*(   1) C  22 - H  74          0.01292     0.39235   
  1877. BD*(   1) C  22 - H  75          0.01290     0.40296   
  1878. BD*(   1) C  23 - C  24          0.06875     0.35698   
  1879. BD*(   1) C  23 - H  76          0.01091     0.40091   
  1880. BD*(   1) C  23 - H  77          0.01273     0.38011   
  1881. BD*(   1) C  24 - O  25          0.03646     0.50341   
  1882. BD*(   2) C  24 - O  25          0.22575     0.02225  1881(g),1875(v),1880(v)
                                                    813(g)
  1883. BD*(   1) C  24 - O  26          0.07477     0.46135   
  1884. BD*(   1) O  26 - H  78          0.01221     0.37332   
  1885. BD*(   1) N  27 - C  28          0.02773     0.49681   
  1886. BD*(   1) N  27 - C  31          0.02757     0.49543   
  1887. BD*(   1) C  28 - C  29          0.03487     0.49431   
  1888. BD*(   1) C  29 - C  30          0.01737     0.63072   
  1889. BD*(   2) C  29 - C  30          0.24722     0.07219  1897(v),1856(v),1853(v)
                                                    1893(v),1894(v),969(g)
  1890. BD*(   1) C  29 - C  32          0.01894     0.36788   
  1891. BD*(   1) C  30 - C  31          0.03594     0.48308   
  1892. BD*(   1) C  30 - C  33          0.03103     0.39096   
  1893. BD*(   1) C  32 - H  91          0.00914     0.40829   
  1894. BD*(   1) C  32 - H  92          0.00630     0.40868   
  1895. BD*(   1) C  32 - H  93          0.00502     0.41236   
  1896. BD*(   1) C  33 - C  34          0.00548     0.62056   
  1897. BD*(   2) C  33 - C  34          0.05213     0.06397   
  1898. BD*(   1) C  33 - H  96          0.01706     0.44816   
  1899. BD*(   1) C  34 - H  94          0.01317     0.44119   
  1900. BD*(   1) C  34 - H  95          0.00971     0.44576   
  1901. BD*(   1) N  35 - C  36          0.02868     0.48882   
  1902. BD*(   1) N  35 - C  39          0.02692     0.48722   
  1903. BD*(   2) N  35 - C  39          0.58690     0.00746  1861(v),1906(v),204(v)
                                                    1833(r),1865(r),1203(g)
                                                    192(r),1097(g),191(r)
                                                    1843(r),194(r),195(r)
  1904. BD*(   1) C  36 - C  37          0.03435     0.49389   
  1905. BD*(   1) C  37 - C  38          0.01827     0.63579   
  1906. BD*(   2) C  37 - C  38          0.31382     0.06901  1914(v),1903(v),204(v)
                                                    1911(v),1177(g),1151(g)
  1907. BD*(   1) C  37 - C  40          0.01795     0.36039   
  1908. BD*(   1) C  38 - C  39          0.03414     0.49618   
  1909. BD*(   1) C  38 - C  41          0.03153     0.38295   
  1910. BD*(   1) C  40 - H  88          0.00494     0.41289   
  1911. BD*(   1) C  40 - H  89          0.00948     0.40861   
  1912. BD*(   1) C  40 - H  90          0.00530     0.40967   
  1913. BD*(   1) C  41 - C  42          0.00492     0.67028   
  1914. BD*(   2) C  41 - C  42          0.15458     0.03820  1906(v),1915(g),1909(g)
                                                    1916(g),1917(g)
  1915. BD*(   1) C  41 - H  99          0.02076     0.42251   
  1916. BD*(   1) C  42 - H  97          0.01049     0.42616   
  1917. BD*(   1) C  42 - H  98          0.00981     0.42670   
  1918. BD*(   1) N  43 - C  44          0.02984     0.49559   
  1919. BD*(   1) N  43 - C  47          0.03045     0.47557   
  1920. BD*(   2) N  43 - C  47          0.67418    -0.00547  1848(v),1923(v),1861(v)
                                                    1411(g),499(v),192(r)
                                                    1833(r),1306(g),1837(r)
                                                    1309(g),191(r),1843(r)
                                                    194(r),1834(r),1842(r)
                                                    193(r),1828(r)
  1921. BD*(   1) C  44 - C  45          0.03515     0.47379   
  1922. BD*(   1) C  45 - C  46          0.01962     0.63596   
  1923. BD*(   2) C  45 - C  46          0.25096     0.07062  1861(v),1920(v),1930(v)
                                                    1928(v)
  1924. BD*(   1) C  45 - C  48          0.01870     0.34575   
  1925. BD*(   1) C  46 - C  47          0.03457     0.50276   
  1926. BD*(   1) C  46 - C  49          0.02722     0.39074   
  1927. BD*(   1) C  48 - H  79          0.00465     0.41348   
  1928. BD*(   1) C  48 - H  80          0.00849     0.40698   
  1929. BD*(   1) C  48 - H  81          0.00601     0.41331   
  1930. BD*(   1) C  49 - C  50          0.01959     0.34818   
  1931. BD*(   1) C  49 - H  70          0.01401     0.40051   
  1932. BD*(   1) C  49 - H  71          0.01412     0.40291   
  1933. BD*(   1) C  50 - C  51          0.06085     0.33199   
  1934. BD*(   1) C  50 - H  68          0.01005     0.39969   
  1935. BD*(   1) C  50 - H  69          0.01333     0.38373   
  1936. BD*(   1) C  51 - O  52          0.07514     0.44266   
  1937. BD*(   1) C  51 - O  53          0.03626     0.52101   
  1938. BD*(   2) C  51 - O  53          0.21635    -0.00197  1937(g),1930(v),1935(v)
                                                    1515(g),1939(v)
  1939. BD*(   1) O  52 - H  72          0.01311     0.37774   
       -------------------------------
              Total Lewis  289.12553  ( 97.4527%)
        Valence non-Lewis    6.92053  (  2.3326%)
        Rydberg non-Lewis    0.63697  (  0.2147%)
       -------------------------------
            Total unit  3  296.68302  (100.0000%)
           Charge unit  3   -0.68302
 1\1\GINC-NODE623\SP\RPBE1PBE\def2TZVP\C41H46Fe1N6O4S1\ZHARTOVSKA\02-Ap
 r-2023\0\\# PBE1PBE/def2TZVP empiricaldispersion=GD3BJ int=(grid=ultra
 fine) geom=check guess=read pop=nbo scf=qc\\2pcb_II_S_nbo\\0,1\C,0,34.
 438,47.118999,62.702999\C,0,35.814999,47.606998,62.407001\N,0,36.875,4
 7.675999,63.282001\C,0,36.300999,48.143002,61.238998\C,0,37.938,48.182
 999,62.674999\N,0,37.611,48.493999,61.448002\C,0,43.360001,48.891998,6
 0.316002\C,0,42.576,48.872002,59.02\S,0,41.227001,50.019001,59.338001\
 C,0,40.990002,50.785,57.730999\Fe,0,39.398998,49.076,60.426998\C,0,40.
 834,50.925999,62.865002\C,0,37.374001,51.689999,59.554001\C,0,38.30099
 9,47.389999,57.612\C,0,40.896,46.314999,61.495998\N,0,39.132,50.938999
 ,61.111\C,0,39.903,51.578999,62.071999\C,0,39.534,52.98,62.083\C,0,38.
 612999,53.188,61.137001\C,0,38.335999,51.903,60.521999\C,0,37.842999,5
 4.462002,60.729\C,0,40.109001,54.040001,63.066002\C,0,39.331001,54.242
 001,64.380997\C,0,39.528999,55.541,65.112\O,0,38.521999,56.216999,65.4
 74998\O,0,40.703999,55.933998,65.382004\N,0,38.096001,49.452999,58.931
 999\C,0,37.334,50.584999,58.755001\C,0,36.504002,50.436001,57.580002\C
 ,0,36.793999,49.245998,57.033001\C,0,37.785,48.608002,57.889999\C,0,35
 .529999,51.504002,57.054001\C,0,36.284,48.638,55.713001\C,0,37.012001,
 47.900002,54.886002\N,0,39.568001,47.212002,59.698002\C,0,39.108002,46
 .744999,58.481998\C,0,39.613998,45.407001,58.262001\C,0,40.338001,45.0
 74001,59.335999\C,0,40.297001,46.181999,60.259998\C,0,39.297001,44.534
 ,57.027\C,0,41.053001,43.731998,59.516998\C,0,41.750999,43.388,60.5750
 01\N,0,40.617001,48.687,61.938\C,0,41.188,47.472,62.200001\C,0,42.2000
 01,47.630001,63.241001\C,0,42.167999,48.917,63.610001\C,0,41.193001,49
 .599998,62.801998\C,0,43.084999,46.450001,63.752998\C,0,43.023998,49.5
 82001,64.68\C,0,44.362,50.223,64.300003\C,0,45.161999,50.646,65.522003
 \O,0,44.634998,51.459,66.348999\O,0,46.317001,50.161999,65.668999\H,0,
 41.80894557,50.5314106,57.09074605\H,0,40.07692396,50.43219567,57.2988
 9069\H,0,40.94293476,51.84776851,57.84592404\H,0,44.2921355,49.3940733
 3,60.16125825\H,0,42.79705503,49.40802447,61.06547416\H,0,43.54459527,
 47.88802047,60.6367107\H,0,43.18093315,49.21660558,58.20747046\H,0,42.
 19838762,47.89056059,58.82230923\H,0,34.44303731,46.57376727,63.623649
 3\H,0,33.77399299,47.95387365,62.78653954\H,0,34.10851515,46.47905457,
 61.91128512\H,0,36.84695792,47.38528457,64.23839985\H,0,35.75443587,48
 .26518035,60.3272737\H,0,38.90385163,48.31586323,63.1158819\H,0,44.936
 60301,49.51842833,63.73581319\H,0,44.1744433,51.08388702,63.69288191\H
 ,0,42.42617166,50.34383998,65.13508795\H,0,43.22793013,48.84299848,65.
 42644957\H,0,45.19331123,52.00648395,66.90590803\H,0,41.32707734,51.51
 846625,63.60713224\H,0,41.10990579,53.75400809,63.31358562\H,0,40.1466
 8368,54.97958095,62.55544394\H,0,38.28815015,54.14671622,64.16126327\H
 ,0,39.60205318,53.4486519,65.04584881\H,0,41.4613878,55.44780434,65.04
 797117\H,0,44.00691472,46.83550309,64.13556767\H,0,42.56741622,45.9269
 3392,64.52979198\H,0,43.28716547,45.77889829,62.94451184\H,0,38.422250
 16,55.0176163,60.02142608\H,0,36.90789395,54.18748644,60.28727638\H,0,
 37.66507205,55.0640693,61.59546233\H,0,36.61664181,52.43446342,59.4233
 1137\H,0,41.17270218,45.39971975,61.97620608\H,0,38.06390139,46.924580
 94,56.67815271\H,0,40.07890505,43.81716198,56.88675265\H,0,38.36876318
 ,44.02406549,57.1794511\H,0,39.22383411,45.15627375,56.15963503\H,0,35
 .98033259,52.02507271,56.23510847\H,0,34.62796881,51.03249912,56.72396
 074\H,0,35.3041507,52.19736681,57.83703215\H,0,38.02023668,47.64793402
 ,55.14060472\H,0,36.59117333,47.55660506,53.96411122\H,0,35.26569826,4
 8.82515793,55.442939\H,0,42.75975924,43.72771581,60.68406953\H,0,41.31
 090429,42.76802137,61.32789086\H,0,40.97827515,43.02063908,58.72120623
 \\Version=ES64L-G16RevA.03\State=1-A\HF=-3879.3236703\RMSD=1.172e-09\D
 ipole=-0.6664581,-1.257555,-0.6191722\Quadrupole=3.5582599,-15.5309558
 ,11.9726959,25.6254214,-0.4302311,-17.6467326\PG=C01 [X(C41H46Fe1N6O4S
 1)]\\@


 Discoveries are often made by not following instructions,
 by going off the main road, by trying the untried.
 -- Frank Tyger
 Job cpu time:       0 days  2 hours 33 minutes 23.2 seconds.
 Elapsed time:       0 days  0 hours 38 minutes 27.0 seconds.
 File lengths (MBytes):  RWF=   1267 Int=      0 D2E=      0 Chk=    246 Scr=      1
 Normal termination of Gaussian 16 at Sun Apr  2 21:47:55 2023.
