 Initial command:
 /afs/math/software/gaussian/g16.A03/g16/l1.exe "/scratch/zhartovska_gaussian.lUfJbdu/Gau-12613.inp" -scrdir="/scratch/zhartovska_gaussian.lUfJbdu/"
 Entering Link 1 = /afs/math/software/gaussian/g16.A03/g16/l1.exe PID=     10306.
  
 Copyright (c) 1988,1990,1992,1993,1995,1998,2003,2009,2016,
            Gaussian, Inc.  All Rights Reserved.
  
 This is part of the Gaussian(R) 16 program.  It is based on
 the Gaussian(R) 09 system (copyright 2009, Gaussian, Inc.),
 the Gaussian(R) 03 system (copyright 2003, Gaussian, Inc.),
 the Gaussian(R) 98 system (copyright 1998, Gaussian, Inc.),
 the Gaussian(R) 94 system (copyright 1995, Gaussian, Inc.),
 the Gaussian 92(TM) system (copyright 1992, Gaussian, Inc.),
 the Gaussian 90(TM) system (copyright 1990, Gaussian, Inc.),
 the Gaussian 88(TM) system (copyright 1988, Gaussian, Inc.),
 the Gaussian 86(TM) system (copyright 1986, Carnegie Mellon
 University), and the Gaussian 82(TM) system (copyright 1983,
 Carnegie Mellon University). Gaussian is a federally registered
 trademark of Gaussian, Inc.
  
 This software contains proprietary and confidential information,
 including trade secrets, belonging to Gaussian, Inc.
  
 This software is provided under written license and may be
 used, copied, transmitted, or stored only in accord with that
 written license.
  
 The following legend is applicable only to US Government
 contracts under FAR:
  
                    RESTRICTED RIGHTS LEGEND
  
 Use, reproduction and disclosure by the US Government is
 subject to restrictions as set forth in subparagraphs (a)
 and (c) of the Commercial Computer Software - Restricted
 Rights clause in FAR 52.227-19.
  
 Gaussian, Inc.
 340 Quinnipiac St., Bldg. 40, Wallingford CT 06492
  
  
 ---------------------------------------------------------------
 Warning -- This program may not be used in any manner that
 competes with the business of Gaussian, Inc. or will provide
 assistance to any competitor of Gaussian, Inc.  The licensee
 of this program is prohibited from giving any competitor of
 Gaussian, Inc. access to this program.  By using this program,
 the user acknowledges that Gaussian, Inc. is engaged in the
 business of creating and licensing software in the field of
 computational chemistry and represents and warrants to the
 licensee that it is not a competitor of Gaussian, Inc. and that
 it will not use this program in any manner prohibited above.
 ---------------------------------------------------------------
  

 Cite this work as:
 Gaussian 16, Revision A.03,
 M. J. Frisch, G. W. Trucks, H. B. Schlegel, G. E. Scuseria, 
 M. A. Robb, J. R. Cheeseman, G. Scalmani, V. Barone, 
 G. A. Petersson, H. Nakatsuji, X. Li, M. Caricato, A. V. Marenich, 
 J. Bloino, B. G. Janesko, R. Gomperts, B. Mennucci, H. P. Hratchian, 
 J. V. Ortiz, A. F. Izmaylov, J. L. Sonnenberg, D. Williams-Young, 
 F. Ding, F. Lipparini, F. Egidi, J. Goings, B. Peng, A. Petrone, 
 T. Henderson, D. Ranasinghe, V. G. Zakrzewski, J. Gao, N. Rega, 
 G. Zheng, W. Liang, M. Hada, M. Ehara, K. Toyota, R. Fukuda, 
 J. Hasegawa, M. Ishida, T. Nakajima, Y. Honda, O. Kitao, H. Nakai, 
 T. Vreven, K. Throssell, J. A. Montgomery, Jr., J. E. Peralta, 
 F. Ogliaro, M. J. Bearpark, J. J. Heyd, E. N. Brothers, K. N. Kudin, 
 V. N. Staroverov, T. A. Keith, R. Kobayashi, J. Normand, 
 K. Raghavachari, A. P. Rendell, J. C. Burant, S. S. Iyengar, 
 J. Tomasi, M. Cossi, J. M. Millam, M. Klene, C. Adamo, R. Cammi, 
 J. W. Ochterski, R. L. Martin, K. Morokuma, O. Farkas, 
 J. B. Foresman, and D. J. Fox, Gaussian, Inc., Wallingford CT, 2016.
 
 ******************************************
 Gaussian 16:  ES64L-G16RevA.03 25-Dec-2016
                20-Feb-2023 
 ******************************************
 %nprocs=12
 Will use up to   12 processors via shared memory.
 %mem=16GB
 %chk=351c_III_H.chk
 ----------------------------------------------------------------------
 # PBE1PBE/def2TZVP empiricaldispersion=GD3BJ int=(grid=ultrafine) geom
 =check guess=read scrf=(smd,solvent=Chloroform)
 ----------------------------------------------------------------------
 1/29=2,38=1,172=1/1;
 2/12=2,40=1/2;
 3/5=44,7=101,11=2,14=-4,25=1,30=1,70=32201,72=7,74=-13,75=-5,116=-2,124=41/1,2,3;
 4/5=1/1;
 5/5=2,38=6,53=7/2;
 6/7=2,8=2,9=2,10=2,28=1/1;
 99/5=1,9=1/99;
 ---------------
 351c_III_H_solv
 ---------------
 Structure from the checkpoint file:  "351c_III_H.chk"
 Charge =  1 Multiplicity = 6
 Z-Matrix found in chk file.
 C,0,10.506,-8.059,15.816
 C,0,10.646,-9.475,16.347
 N,0,11.609,-10.329,15.917
 C,0,9.806,-10.17,17.202999
 C,0,11.386,-11.535,16.502001
 N,0,10.281,-11.443,17.297001
 C,0,9.901,-15.818,21.115999
 C,0,8.608,-15.006,20.93
 S,0,8.151,-14.706,19.209
 C,0,8.392,-16.289,18.379999
 C,0,11.705,-15.247,17.135
 C,0,7.609,-13.457,15.336
 C,0,6.886,-11.003,19.43
 C,0,11.262,-12.316,20.955
 C,0,10.647,-14.993,16.285
 C,0,10.462,-15.551,15.035
 C,0,9.322,-14.979,14.496
 C,0,8.792,-14.154,15.459
 C,0,8.722,-15.221,13.128
 C,0,11.327,-16.6,14.394
 C,0,10.913,-17.951,14.931
 C,0,11.757,-19.049,14.31
 O,0,12.606,-18.742001,13.48
 O,0,11.154,-20.173,14.12
 C,0,7.06,-12.605,16.271999
 C,0,5.813,-11.987,16.164
 C,0,5.554,-11.363,17.382
 C,0,6.7,-11.518,18.162001
 C,0,4.877,-12.076,14.978
 C,0,4.282,-10.647,17.806999
 C,0,3.058,-11.55,17.913
 C,0,8.014,-11.167,20.215
 C,0,8.233,-10.548,21.438999
 C,0,9.538,-10.804,21.785999
 C,0,10.029,-11.717,20.882999
 C,0,7.296,-9.624,22.177999
 C,0,10.314,-10.142,22.9
 C,0,9.856,-10.481,24.302999
 C,0,11.751,-13.246,20.066
 C,0,12.957,-13.92,20.209999
 C,0,13.035,-14.83,19.16
 C,0,11.925,-14.622,18.348
 C,0,13.973,-13.709,21.320999
 C,0,14.131,-15.841,18.905001
 C,0,13.737,-17.233999,19.374001
 C,0,14.831,-18.243999,19.018999
 O,0,14.501,-19.413,18.804001
 O,0,16.113001,-17.959,19.183001
 N,0,9.628,-14.14,16.524
 N,0,7.596,-12.302,17.486
 N,0,9.124,-11.881,19.898001
 N,0,11.12,-13.672,18.924999
 Fe,0,9.405,-12.974,18.219
 H,0,10.67399188,-15.17778236,21.48681556
 H,0,9.72766535,-16.60955442,21.81478129
 H,0,10.20082861,-16.23153754,20.17579184
 H,0,7.8069836,-15.53246791,21.40550422
 H,0,8.72936864,-14.06104649,21.41706521
 H,0,9.30548383,-16.73268771,18.71702794
 H,0,7.57385875,-16.93957557,18.60868288
 H,0,8.43967129,-16.13411822,17.32234164
 H,0,13.59624653,-17.22336679,20.43464958
 H,0,12.82249519,-17.52162495,18.89876184
 H,0,15.01448836,-15.53537176,19.42551969
 H,0,14.33817516,-15.87260544,17.85572527
 H,0,16.78450501,-18.55363723,18.84081841
 H,0,11.66446034,-20.97466485,13.98448726
 H,0,11.04245449,-17.96381213,15.9930628
 H,0,9.88282622,-18.12301905,14.69851036
 H,0,12.3536577,-16.4161576,14.6329057
 H,0,11.19410514,-16.57770676,13.33251897
 H,0,9.38262966,-15.8350694,12.55233758
 H,0,7.77853924,-15.71438786,13.23453737
 H,0,8.58058445,-14.28465555,12.62984268
 H,0,12.41297039,-15.98884884,16.82948695
 H,0,14.86125385,-13.27289381,20.9139161
 H,0,13.56148116,-13.05500914,22.06116668
 H,0,14.2113675,-14.65058659,21.76988163
 H,0,11.89595662,-12.0365548,21.77041976
 H,0,7.75946122,-8.6670133,22.29749861
 H,0,6.38967718,-9.51417747,21.61995065
 H,0,7.0745692,-10.03573327,23.14046672
 H,0,6.08570235,-10.42500433,19.84272835
 H,0,5.34296267,-12.64039425,14.19746306
 H,0,3.96988101,-12.55953047,15.2750411
 H,0,4.65642184,-11.09099662,14.62301603
 H,0,7.06308278,-13.58980275,14.42537504
 H,0,11.34305378,-7.82816596,15.19073477
 H,0,9.60319061,-7.97897834,15.24728941
 H,0,10.47312219,-7.37224917,16.63587337
 H,0,8.94264968,-9.77820921,17.69900928
 H,0,12.3504467,-10.10986987,15.28277703
 H,0,11.98023491,-12.41373768,16.36198328
 H,0,3.1810822,-12.60564889,18.03692009
 H,0,2.0759628,-11.12804095,17.86346724
 H,0,4.24852269,-9.59780029,18.01426513
 H,0,10.57743644,-10.66659345,25.07110351
 H,0,8.81094115,-10.53494366,24.5262524
 H,0,11.13183644,-9.47852988,22.71065649
 Recover connectivity data from disk.
 Stoichiometry    C41H46FeN6O4S(1+,6)
 Framework group  C1[X(C41H46FeN6O4S)]
 Deg. of freedom   291
 Full point group                 C1      NOp   1
 Largest Abelian subgroup         C1      NOp   1
 Largest concise Abelian subgroup C1      NOp   1
                         Standard orientation:                         
 ---------------------------------------------------------------------
 Center     Atomic      Atomic             Coordinates (Angstroms)
 Number     Number       Type             X           Y           Z
 ---------------------------------------------------------------------
      1          6           0        3.355220   -0.883368    5.019160
      2          6           0        2.335161   -0.535055    3.949218
      3          7           0        1.000325   -0.498289    4.190973
      4          6           0        2.531811   -0.337203    2.591447
      5          6           0        0.370357   -0.268666    3.009108
      6          7           0        1.306606   -0.164826    2.022108
      7          6           0       -0.793115    2.323822   -2.801540
      8          6           0        0.546469    1.589718   -2.981526
      9         16           0        0.598976   -0.064391   -2.259129
     10          6           0       -0.962090   -0.830809   -2.735455
     11          6           0       -2.472595   -0.020912    0.531683
     12          6           0        0.862364   -3.462374    0.029589
     13          6           0        4.221980   -0.087699   -0.764280
     14          6           0        1.010622    3.327315    0.341990
     15          6           0       -1.869601   -1.260294    0.449765
     16          6           0       -2.508043   -2.479553    0.567609
     17          6           0       -1.533808   -3.460682    0.493067
     18          6           0       -0.340683   -2.824911    0.245798
     19          6           0       -1.715440   -4.957978    0.615956
     20          6           0       -3.987309   -2.695827    0.724154
     21          6           0       -4.625826   -2.624295   -0.644109
     22          6           0       -6.124542   -2.840663   -0.541078
     23          8           0       -6.614281   -3.059233    0.561797
     24          8           0       -6.667193   -3.453518   -1.537584
     25          6           0        2.080293   -2.856022   -0.199285
     26          6           0        3.265483   -3.523949   -0.512008
     27          6           0        4.210682   -2.555865   -0.842753
     28          6           0        3.612086   -1.317416   -0.611085
     29          6           0        3.447881   -5.024800   -0.581209
     30          6           0        5.623900   -2.775317   -1.358427
     31          6           0        5.696660   -3.436339   -2.730498
     32          6           0        3.628597    1.144453   -0.551669
     33          6           0        4.286277    2.367009   -0.597596
     34          6           0        3.403427    3.311056   -0.130347
     35          6           0        2.182405    2.694756    0.008720
     36          6           0        5.739150    2.613031   -0.923939
     37          6           0        3.732675    4.737420    0.241809
     38          6           0        4.113903    5.639931   -0.912847
     39          6           0       -0.218464    2.719703    0.462390
     40          6           0       -1.412316    3.389717    0.697436
     41          6           0       -2.422829    2.433764    0.656202
     42          6           0       -1.813822    1.193622    0.495370
     43          6           0       -1.569387    4.884039    0.928578
     44          6           0       -3.910654    2.668551    0.796244
     45          6           0       -4.610684    2.688060   -0.554764
     46          6           0       -6.122585    2.837569   -0.368314
     47          8           0       -6.868833    2.340931   -1.215753
     48          8           0       -6.628734    3.681253    0.516931
     49          7           0       -0.551814   -1.487584    0.263036
     50          7           0        2.306338   -1.514656   -0.249746
     51          7           0        2.341695    1.370514   -0.184024
     52          7           0       -0.462163    1.375212    0.342083
     53         26           0        0.907417   -0.032164    0.076737
     54          1           0       -0.672038    3.119069   -2.095974
     55          1           0       -1.108556    2.725982   -3.741575
     56          1           0       -1.530643    1.637102   -2.441863
     57          1           0        0.748730    1.507578   -4.029020
     58          1           0        1.318001    2.179376   -2.532148
     59          1           0       -1.756316   -0.122866   -2.621776
     60          1           0       -0.908045   -1.145249   -3.756781
     61          1           0       -1.148276   -1.679118   -2.110470
     62          1           0       -4.242544    3.510405   -1.131930
     63          1           0       -4.406872    1.773745   -1.071861
     64          1           0       -4.070507    3.607033    1.284710
     65          1           0       -4.331395    1.887981    1.395067
     66          1           0       -7.569888    3.671279    0.705952
     67          1           0       -7.615568   -3.398666   -1.676059
     68          1           0       -4.436381   -1.662283   -1.072530
     69          1           0       -4.202053   -3.380239   -1.271696
     70          1           0       -4.398339   -1.934867    1.354148
     71          1           0       -4.167353   -3.657991    1.156271
     72          1           0       -2.725622   -5.172955    0.895628
     73          1           0       -1.499090   -5.421816   -0.323697
     74          1           0       -1.050035   -5.337870    1.362828
     75          1           0       -3.537700    0.001153    0.631510
     76          1           0       -1.874488    5.058495    1.939211
     77          1           0       -0.634766    5.372950    0.748717
     78          1           0       -2.309460    5.272439    0.260493
     79          1           0        1.056583    4.380834    0.523331
     80          1           0        6.219973    3.073047   -0.086029
     81          1           0        6.218179    1.681654   -1.142952
     82          1           0        5.809321    3.258812   -1.774200
     83          1           0        5.245734   -0.087617   -1.075452
     84          1           0        2.538260   -5.508350   -0.291952
     85          1           0        3.699606   -5.307734   -1.581950
     86          1           0        4.234729   -5.319391    0.081352
     87          1           0        0.850376   -4.532253    0.040335
     88          1           0        2.868092   -0.944786    5.969862
     89          1           0        3.806759   -1.825539    4.788234
     90          1           0        4.109465   -0.125175    5.053183
     91          1           0        3.473549   -0.322578    2.083690
     92          1           0        0.559044   -0.618699    5.080227
     93          1           0       -0.687687   -0.183201    2.874427
     94          1           0        4.854242   -3.396271   -3.389001
     95          1           0        6.590138   -3.940284   -3.034860
     96          1           0        6.494145   -2.489943   -0.805131
     97          1           0        3.742384    6.642540   -0.953478
     98          1           0        4.754795    5.275037   -1.688094
     99          1           0        3.698838    5.086459    1.252713
 ---------------------------------------------------------------------
 Rotational constants (GHZ):           0.0680583           0.0444275           0.0341813
 Standard basis: def2TZVP (5D, 7F)
 There are  2206 symmetry adapted cartesian basis functions of A   symmetry.
 There are  1939 symmetry adapted basis functions of A   symmetry.
  1939 basis functions,  3140 primitive gaussians,  2206 cartesian basis functions
   206 alpha electrons      201 beta electrons
       nuclear repulsion energy      8932.7382599591 Hartrees.
 NAtoms=   99 NActive=   99 NUniq=   99 SFac= 1.00D+00 NAtFMM=   60 NAOKFM=T Big=T
 Integral buffers will be    131072 words long.
 Raffenetti 2 integral format.
 Two-electron integral symmetry is turned on.
 Nuclear repulsion after empirical dispersion term =     8932.5881883859 Hartrees.
 ------------------------------------------------------------------------------
 Polarizable Continuum Model (PCM)
 =================================
 Model                : PCM.
 Atomic radii         : SMD-Coulomb.
 Polarization charges : Total charges.
 Charge compensation  : None.
 Solution method      : On-the-fly selection.
 Cavity type          : VdW (van der Waals Surface) (Alpha=1.000).
 Cavity algorithm     : GePol (No added spheres)
                        Default sphere list used, NSphG=   99.
                        Lebedev-Laikov grids with approx.  5.0 points / Ang**2.
                        Smoothing algorithm: York/Karplus (Gamma=1.0000).
                        Polarization charges: spherical gaussians, with
                                              point-specific exponents (IZeta= 3).
                        Self-potential: point-specific (ISelfS= 7).
                        Self-field    : sphere-specific E.n sum rule (ISelfD= 2).
 Solvent              : Chloroform, Eps=   4.711300 Eps(inf)=   2.090627
 ------------------------------------------------------------------------------
 ------------------------------------------------------------------------------
 Atomic radii for non-electrostatic terms: SMD-CDS.
 ------------------------------------------------------------------------------
 Nuclear repulsion after PCM non-electrostatic terms =     8932.5700098027 Hartrees.
 One-electron integrals computed using PRISM.
   1 Symmetry operations used in ECPInt.
 ECPInt:  NShTT=  299151 NPrTT=  925475 LenC2=  220712 LenP2D=  442162.
 LDataN:  DoStor=T MaxTD1= 6 Len=  172
 NBasis=  1939 RedAO= T EigKep=  2.43D-06  NBF=  1939
 NBsUse=  1939 1.00D-06 EigRej= -1.00D+00 NBFU=  1939
 Initial guess from the checkpoint file:  "351c_III_H.chk"
 B after Tr=    -0.000000    0.000000    0.000000
         Rot=    1.000000    0.000000    0.000000   -0.000000 Ang=   0.00 deg.
 Initial guess <Sx>= 0.0000 <Sy>= 0.0000 <Sz>= 2.5000 <S**2>= 8.7611 S= 2.5018
 Requested convergence on RMS density matrix=1.00D-08 within 128 cycles.
 Requested convergence on MAX density matrix=1.00D-06.
 Requested convergence on             energy=1.00D-06.
 No special actions if energy rises.
 Inv3:  Mode=1 IEnd=   143534667.
 Iteration    1 A*A^-1 deviation from unit magnitude is 5.22D-15 for   2281.
 Iteration    1 A*A^-1 deviation from orthogonality  is 2.09D-15 for   5156   1009.
 Iteration    1 A^-1*A deviation from unit magnitude is 5.22D-15 for   2281.
 Iteration    1 A^-1*A deviation from orthogonality  is 5.10D-14 for   5880   5849.
 Error on total polarization charges =  0.07904
 SCF Done:  E(UPBE1PBE) =  -3879.26016959     A.U. after   16 cycles
            NFock= 16  Conv=0.65D-09     -V/T= 2.0029
 <Sx>= 0.0000 <Sy>= 0.0000 <Sz>= 2.5000 <S**2>= 8.7606 S= 2.5018
 <L.S>= 0.000000000000E+00
 SMD-CDS (non-electrostatic) energy       (kcal/mol) =     -11.41
 (included in total energy above)
 Annihilation of the first spin contaminant:
 S**2 before annihilation     8.7606,   after     8.7500

 **********************************************************************

            Population analysis using the SCF density.

 **********************************************************************

 Orbital symmetries:
 Alpha Orbitals:
       Occupied  (A) (A) (A) (A) (A) (A) (A) (A) (A) (A) (A) (A)
                 (A) (A) (A) (A) (A) (A) (A) (A) (A) (A) (A) (A)
                 (A) (A) (A) (A) (A) (A) (A) (A) (A) (A) (A) (A)
                 (A) (A) (A) (A) (A) (A) (A) (A) (A) (A) (A) (A)
                 (A) (A) (A) (A) (A) (A) (A) (A) (A) (A) (A) (A)
                 (A) (A) (A) (A) (A) (A) (A) (A) (A) (A) (A) (A)
                 (A) (A) (A) (A) (A) (A) (A) (A) (A) (A) (A) (A)
                 (A) (A) (A) (A) (A) (A) (A) (A) (A) (A) (A) (A)
                 (A) (A) (A) (A) (A) (A) (A) (A) (A) (A) (A) (A)
                 (A) (A) (A) (A) (A) (A) (A) (A) (A) (A) (A) (A)
                 (A) (A) (A) (A) (A) (A) (A) (A) (A) (A) (A) (A)
                 (A) (A) (A) (A) (A) (A) (A) (A) (A) (A) (A) (A)
                 (A) (A) (A) (A) (A) (A) (A) (A) (A) (A) (A) (A)
                 (A) (A) (A) (A) (A) (A) (A) (A) (A) (A) (A) (A)
                 (A) (A) (A) (A) (A) (A) (A) (A) (A) (A) (A) (A)
                 (A) (A) (A) (A) (A) (A) (A) (A) (A) (A) (A) (A)
                 (A) (A) (A) (A) (A) (A) (A) (A) (A) (A) (A) (A)
                 (A) (A)
       Virtual   (A) (A) (A) (A) (A) (A) (A) (A) (A) (A) (A) (A)
                 (A) (A) (A) (A) (A) (A) (A) (A) (A) (A) (A) (A)
                 (A) (A) (A) (A) (A) (A) (A) (A) (A) (A) (A) (A)
                 (A) (A) (A) (A) (A) (A) (A) (A) (A) (A) (A) (A)
                 (A) (A) (A) (A) (A) (A) (A) (A) (A) (A) (A) (A)
                 (A) (A) (A) (A) (A) (A) (A) (A) (A) (A) (A) (A)
                 (A) (A) (A) (A) (A) (A) (A) (A) (A) (A) (A) (A)
                 (A) (A) (A) (A) (A) (A) (A) (A) (A) (A) (A) (A)
                 (A) (A) (A) (A) (A) (A) (A) (A) (A) (A) (A) (A)
                 (A) (A) (A) (A) (A) (A) (A) (A) (A) (A) (A) (A)
                 (A) (A) (A) (A) (A) (A) (A) (A) (A) (A) (A) (A)
                 (A) (A) (A) (A) (A) (A) (A) (A) (A) (A) (A) (A)
                 (A) (A) (A) (A) (A) (A) (A) (A) (A) (A) (A) (A)
                 (A) (A) (A) (A) (A) (A) (A) (A) (A) (A) (A) (A)
                 (A) (A) (A) (A) (A) (A) (A) (A) (A) (A) (A) (A)
                 (A) (A) (A) (A) (A) (A) (A) (A) (A) (A) (A) (A)
                 (A) (A) (A) (A) (A) (A) (A) (A) (A) (A) (A) (A)
                 (A) (A) (A) (A) (A) (A) (A) (A) (A) (A) (A) (A)
                 (A) (A) (A) (A) (A) (A) (A) (A) (A) (A) (A) (A)
                 (A) (A) (A) (A) (A) (A) (A) (A) (A) (A) (A) (A)
                 (A) (A) (A) (A) (A) (A) (A) (A) (A) (A) (A) (A)
                 (A) (A) (A) (A) (A) (A) (A) (A) (A) (A) (A) (A)
                 (A) (A) (A) (A) (A) (A) (A) (A) (A) (A) (A) (A)
                 (A) (A) (A) (A) (A) (A) (A) (A) (A) (A) (A) (A)
                 (A) (A) (A) (A) (A) (A) (A) (A) (A) (A) (A) (A)
                 (A) (A) (A) (A) (A) (A) (A) (A) (A) (A) (A) (A)
                 (A) (A) (A) (A) (A) (A) (A) (A) (A) (A) (A) (A)
                 (A) (A) (A) (A) (A) (A) (A) (A) (A) (A) (A) (A)
                 (A) (A) (A) (A) (A) (A) (A) (A) (A) (A) (A) (A)
                 (A) (A) (A) (A) (A) (A) (A) (A) (A) (A) (A) (A)
                 (A) (A) (A) (A) (A) (A) (A) (A) (A) (A) (A) (A)
                 (A) (A) (A) (A) (A) (A) (A) (A) (A) (A) (A) (A)
                 (A) (A) (A) (A) (A) (A) (A) (A) (A) (A) (A) (A)
                 (A) (A) (A) (A) (A) (A) (A) (A) (A) (A) (A) (A)
                 (A) (A) (A) (A) (A) (A) (A) (A) (A) (A) (A) (A)
                 (A) (A) (A) (A) (A) (A) (A) (A) (A) (A) (A) (A)
                 (A) (A) (A) (A) (A) (A) (A) (A) (A) (A) (A) (A)
                 (A) (A) (A) (A) (A) (A) (A) (A) (A) (A) (A) (A)
                 (A) (A) (A) (A) (A) (A) (A) (A) (A) (A) (A) (A)
                 (A) (A) (A) (A) (A) (A) (A) (A) (A) (A) (A) (A)
                 (A) (A) (A) (A) (A) (A) (A) (A) (A) (A) (A) (A)
                 (A) (A) (A) (A) (A) (A) (A) (A) (A) (A) (A) (A)
                 (A) (A) (A) (A) (A) (A) (A) (A) (A) (A) (A) (A)
                 (A) (A) (A) (A) (A) (A) (A) (A) (A) (A) (A) (A)
                 (A) (A) (A) (A) (A) (A) (A) (A) (A) (A) (A) (A)
                 (A) (A) (A) (A) (A) (A) (A) (A) (A) (A) (A) (A)
                 (A) (A) (A) (A) (A) (A) (A) (A) (A) (A) (A) (A)
                 (A) (A) (A) (A) (A) (A) (A) (A) (A) (A) (A) (A)
                 (A) (A) (A) (A) (A) (A) (A) (A) (A) (A) (A) (A)
                 (A) (A) (A) (A) (A) (A) (A) (A) (A) (A) (A) (A)
                 (A) (A) (A) (A) (A) (A) (A) (A) (A) (A) (A) (A)
                 (A) (A) (A) (A) (A) (A) (A) (A) (A) (A) (A) (A)
                 (A) (A) (A) (A) (A) (A) (A) (A) (A) (A) (A) (A)
                 (A) (A) (A) (A) (A) (A) (A) (A) (A) (A) (A) (A)
                 (A) (A) (A) (A) (A) (A) (A) (A) (A) (A) (A) (A)
                 (A) (A) (A) (A) (A) (A) (A) (A) (A) (A) (A) (A)
                 (A) (A) (A) (A) (A) (A) (A) (A) (A) (A) (A) (A)
                 (A) (A) (A) (A) (A) (A) (A) (A) (A) (A) (A) (A)
                 (A) (A) (A) (A) (A) (A) (A) (A) (A) (A) (A) (A)
                 (A) (A) (A) (A) (A) (A) (A) (A) (A) (A) (A) (A)
                 (A) (A) (A) (A) (A) (A) (A) (A) (A) (A) (A) (A)
                 (A) (A) (A) (A) (A) (A) (A) (A) (A) (A) (A) (A)
                 (A) (A) (A) (A) (A) (A) (A) (A) (A) (A) (A) (A)
                 (A) (A) (A) (A) (A) (A) (A) (A) (A) (A) (A) (A)
                 (A) (A) (A) (A) (A) (A) (A) (A) (A) (A) (A) (A)
                 (A) (A) (A) (A) (A) (A) (A) (A) (A) (A) (A) (A)
                 (A) (A) (A) (A) (A) (A) (A) (A) (A) (A) (A) (A)
                 (A) (A) (A) (A) (A) (A) (A) (A) (A) (A) (A) (A)
                 (A) (A) (A) (A) (A) (A) (A) (A) (A) (A) (A) (A)
                 (A) (A) (A) (A) (A) (A) (A) (A) (A) (A) (A) (A)
                 (A) (A) (A) (A) (A) (A) (A) (A) (A) (A) (A) (A)
                 (A) (A) (A) (A) (A) (A) (A) (A) (A) (A) (A) (A)
                 (A) (A) (A) (A) (A) (A) (A) (A) (A) (A) (A) (A)
                 (A) (A) (A) (A) (A) (A) (A) (A) (A) (A) (A) (A)
                 (A) (A) (A) (A) (A) (A) (A) (A) (A) (A) (A) (A)
                 (A) (A) (A) (A) (A) (A) (A) (A) (A) (A) (A) (A)
                 (A) (A) (A) (A) (A) (A) (A) (A) (A) (A) (A) (A)
                 (A) (A) (A) (A) (A) (A) (A) (A) (A) (A) (A) (A)
                 (A) (A) (A) (A) (A) (A) (A) (A) (A) (A) (A) (A)
                 (A) (A) (A) (A) (A) (A) (A) (A) (A) (A) (A) (A)
                 (A) (A) (A) (A) (A) (A) (A) (A) (A) (A) (A) (A)
                 (A) (A) (A) (A) (A) (A) (A) (A) (A) (A) (A) (A)
                 (A) (A) (A) (A) (A) (A) (A) (A) (A) (A) (A) (A)
                 (A) (A) (A) (A) (A) (A) (A) (A) (A) (A) (A) (A)
                 (A) (A) (A) (A) (A) (A) (A) (A) (A) (A) (A) (A)
                 (A) (A) (A) (A) (A) (A) (A) (A) (A) (A) (A) (A)
                 (A) (A) (A) (A) (A) (A) (A) (A) (A) (A) (A) (A)
                 (A) (A) (A) (A) (A) (A) (A) (A) (A) (A) (A) (A)
                 (A) (A) (A) (A) (A) (A) (A) (A) (A) (A) (A) (A)
                 (A) (A) (A) (A) (A) (A) (A) (A) (A) (A) (A) (A)
                 (A) (A) (A) (A) (A) (A) (A) (A) (A) (A) (A) (A)
                 (A) (A) (A) (A) (A) (A) (A) (A) (A) (A) (A) (A)
                 (A) (A) (A) (A) (A) (A) (A) (A) (A) (A) (A) (A)
                 (A) (A) (A) (A) (A) (A) (A) (A) (A) (A) (A) (A)
                 (A) (A) (A) (A) (A) (A) (A) (A) (A) (A) (A) (A)
                 (A) (A) (A) (A) (A) (A) (A) (A) (A) (A) (A) (A)
                 (A) (A) (A) (A) (A) (A) (A) (A) (A) (A) (A) (A)
                 (A) (A) (A) (A) (A) (A) (A) (A) (A) (A) (A) (A)
                 (A) (A) (A) (A) (A) (A) (A) (A) (A) (A) (A) (A)
                 (A) (A) (A) (A) (A) (A) (A) (A) (A) (A) (A) (A)
                 (A) (A) (A) (A) (A) (A) (A) (A) (A) (A) (A) (A)
                 (A) (A) (A) (A) (A) (A) (A) (A) (A) (A) (A) (A)
                 (A) (A) (A) (A) (A) (A) (A) (A) (A) (A) (A) (A)
                 (A) (A) (A) (A) (A) (A) (A) (A) (A) (A) (A) (A)
                 (A) (A) (A) (A) (A) (A) (A) (A) (A) (A) (A) (A)
                 (A) (A) (A) (A) (A) (A) (A) (A) (A) (A) (A) (A)
                 (A) (A) (A) (A) (A) (A) (A) (A) (A) (A) (A) (A)
                 (A) (A) (A) (A) (A) (A) (A) (A) (A) (A) (A) (A)
                 (A) (A) (A) (A) (A) (A) (A) (A) (A) (A) (A) (A)
                 (A) (A) (A) (A) (A) (A) (A) (A) (A) (A) (A) (A)
                 (A) (A) (A) (A) (A) (A) (A) (A) (A) (A) (A) (A)
                 (A) (A) (A) (A) (A) (A) (A) (A) (A) (A) (A) (A)
                 (A) (A) (A) (A) (A) (A) (A) (A) (A) (A) (A) (A)
                 (A) (A) (A) (A) (A) (A) (A) (A) (A) (A) (A) (A)
                 (A) (A) (A) (A) (A) (A) (A) (A) (A) (A) (A) (A)
                 (A) (A) (A) (A) (A) (A) (A) (A) (A) (A) (A) (A)
                 (A) (A) (A) (A) (A) (A) (A) (A) (A) (A) (A) (A)
                 (A) (A) (A) (A) (A) (A) (A) (A) (A) (A) (A) (A)
                 (A) (A) (A) (A) (A) (A) (A) (A) (A) (A) (A) (A)
                 (A) (A) (A) (A) (A) (A) (A) (A) (A) (A) (A) (A)
                 (A) (A) (A) (A) (A) (A) (A) (A) (A) (A) (A) (A)
                 (A) (A) (A) (A) (A) (A) (A) (A) (A) (A) (A) (A)
                 (A) (A) (A) (A) (A) (A) (A) (A) (A) (A) (A) (A)
                 (A) (A) (A) (A) (A) (A) (A) (A) (A) (A) (A) (A)
                 (A) (A) (A) (A) (A) (A) (A) (A) (A) (A) (A) (A)
                 (A) (A) (A) (A) (A) (A) (A) (A) (A) (A) (A) (A)
                 (A) (A) (A) (A) (A) (A) (A) (A) (A) (A) (A) (A)
                 (A) (A) (A) (A) (A) (A) (A) (A) (A) (A) (A) (A)
                 (A) (A) (A) (A) (A) (A) (A) (A) (A) (A) (A) (A)
                 (A) (A) (A) (A) (A) (A) (A) (A) (A) (A) (A) (A)
                 (A) (A) (A) (A) (A) (A) (A) (A) (A) (A) (A) (A)
                 (A) (A) (A) (A) (A) (A) (A) (A) (A) (A) (A) (A)
                 (A) (A) (A) (A) (A) (A) (A) (A) (A) (A) (A) (A)
                 (A) (A) (A) (A) (A) (A) (A) (A) (A) (A) (A) (A)
                 (A) (A) (A) (A) (A) (A) (A) (A) (A) (A) (A) (A)
                 (A) (A) (A) (A) (A) (A) (A) (A) (A) (A) (A) (A)
                 (A) (A) (A) (A) (A) (A) (A) (A) (A) (A) (A) (A)
                 (A) (A) (A) (A) (A) (A) (A) (A) (A) (A) (A) (A)
                 (A) (A) (A) (A) (A) (A) (A) (A) (A) (A) (A) (A)
                 (A) (A) (A) (A) (A) (A) (A) (A) (A) (A) (A) (A)
                 (A) (A) (A) (A) (A) (A) (A) (A) (A) (A) (A) (A)
                 (A) (A) (A) (A) (A) (A) (A) (A) (A) (A) (A) (A)
                 (A) (A) (A) (A) (A) (A) (A) (A) (A) (A) (A) (A)
                 (A) (A) (A) (A) (A) (A) (A) (A) (A) (A) (A) (A)
                 (A) (A) (A) (A) (A)
 Beta  Orbitals:
       Occupied  (A) (A) (A) (A) (A) (A) (A) (A) (A) (A) (A) (A)
                 (A) (A) (A) (A) (A) (A) (A) (A) (A) (A) (A) (A)
                 (A) (A) (A) (A) (A) (A) (A) (A) (A) (A) (A) (A)
                 (A) (A) (A) (A) (A) (A) (A) (A) (A) (A) (A) (A)
                 (A) (A) (A) (A) (A) (A) (A) (A) (A) (A) (A) (A)
                 (A) (A) (A) (A) (A) (A) (A) (A) (A) (A) (A) (A)
                 (A) (A) (A) (A) (A) (A) (A) (A) (A) (A) (A) (A)
                 (A) (A) (A) (A) (A) (A) (A) (A) (A) (A) (A) (A)
                 (A) (A) (A) (A) (A) (A) (A) (A) (A) (A) (A) (A)
                 (A) (A) (A) (A) (A) (A) (A) (A) (A) (A) (A) (A)
                 (A) (A) (A) (A) (A) (A) (A) (A) (A) (A) (A) (A)
                 (A) (A) (A) (A) (A) (A) (A) (A) (A) (A) (A) (A)
                 (A) (A) (A) (A) (A) (A) (A) (A) (A) (A) (A) (A)
                 (A) (A) (A) (A) (A) (A) (A) (A) (A) (A) (A) (A)
                 (A) (A) (A) (A) (A) (A) (A) (A) (A) (A) (A) (A)
                 (A) (A) (A) (A) (A) (A) (A) (A) (A) (A) (A) (A)
                 (A) (A) (A) (A) (A) (A) (A) (A) (A)
       Virtual   (A) (A) (A) (A) (A) (A) (A) (A) (A) (A) (A) (A)
                 (A) (A) (A) (A) (A) (A) (A) (A) (A) (A) (A) (A)
                 (A) (A) (A) (A) (A) (A) (A) (A) (A) (A) (A) (A)
                 (A) (A) (A) (A) (A) (A) (A) (A) (A) (A) (A) (A)
                 (A) (A) (A) (A) (A) (A) (A) (A) (A) (A) (A) (A)
                 (A) (A) (A) (A) (A) (A) (A) (A) (A) (A) (A) (A)
                 (A) (A) (A) (A) (A) (A) (A) (A) (A) (A) (A) (A)
                 (A) (A) (A) (A) (A) (A) (A) (A) (A) (A) (A) (A)
                 (A) (A) (A) (A) (A) (A) (A) (A) (A) (A) (A) (A)
                 (A) (A) (A) (A) (A) (A) (A) (A) (A) (A) (A) (A)
                 (A) (A) (A) (A) (A) (A) (A) (A) (A) (A) (A) (A)
                 (A) (A) (A) (A) (A) (A) (A) (A) (A) (A) (A) (A)
                 (A) (A) (A) (A) (A) (A) (A) (A) (A) (A) (A) (A)
                 (A) (A) (A) (A) (A) (A) (A) (A) (A) (A) (A) (A)
                 (A) (A) (A) (A) (A) (A) (A) (A) (A) (A) (A) (A)
                 (A) (A) (A) (A) (A) (A) (A) (A) (A) (A) (A) (A)
                 (A) (A) (A) (A) (A) (A) (A) (A) (A) (A) (A) (A)
                 (A) (A) (A) (A) (A) (A) (A) (A) (A) (A) (A) (A)
                 (A) (A) (A) (A) (A) (A) (A) (A) (A) (A) (A) (A)
                 (A) (A) (A) (A) (A) (A) (A) (A) (A) (A) (A) (A)
                 (A) (A) (A) (A) (A) (A) (A) (A) (A) (A) (A) (A)
                 (A) (A) (A) (A) (A) (A) (A) (A) (A) (A) (A) (A)
                 (A) (A) (A) (A) (A) (A) (A) (A) (A) (A) (A) (A)
                 (A) (A) (A) (A) (A) (A) (A) (A) (A) (A) (A) (A)
                 (A) (A) (A) (A) (A) (A) (A) (A) (A) (A) (A) (A)
                 (A) (A) (A) (A) (A) (A) (A) (A) (A) (A) (A) (A)
                 (A) (A) (A) (A) (A) (A) (A) (A) (A) (A) (A) (A)
                 (A) (A) (A) (A) (A) (A) (A) (A) (A) (A) (A) (A)
                 (A) (A) (A) (A) (A) (A) (A) (A) (A) (A) (A) (A)
                 (A) (A) (A) (A) (A) (A) (A) (A) (A) (A) (A) (A)
                 (A) (A) (A) (A) (A) (A) (A) (A) (A) (A) (A) (A)
                 (A) (A) (A) (A) (A) (A) (A) (A) (A) (A) (A) (A)
                 (A) (A) (A) (A) (A) (A) (A) (A) (A) (A) (A) (A)
                 (A) (A) (A) (A) (A) (A) (A) (A) (A) (A) (A) (A)
                 (A) (A) (A) (A) (A) (A) (A) (A) (A) (A) (A) (A)
                 (A) (A) (A) (A) (A) (A) (A) (A) (A) (A) (A) (A)
                 (A) (A) (A) (A) (A) (A) (A) (A) (A) (A) (A) (A)
                 (A) (A) (A) (A) (A) (A) (A) (A) (A) (A) (A) (A)
                 (A) (A) (A) (A) (A) (A) (A) (A) (A) (A) (A) (A)
                 (A) (A) (A) (A) (A) (A) (A) (A) (A) (A) (A) (A)
                 (A) (A) (A) (A) (A) (A) (A) (A) (A) (A) (A) (A)
                 (A) (A) (A) (A) (A) (A) (A) (A) (A) (A) (A) (A)
                 (A) (A) (A) (A) (A) (A) (A) (A) (A) (A) (A) (A)
                 (A) (A) (A) (A) (A) (A) (A) (A) (A) (A) (A) (A)
                 (A) (A) (A) (A) (A) (A) (A) (A) (A) (A) (A) (A)
                 (A) (A) (A) (A) (A) (A) (A) (A) (A) (A) (A) (A)
                 (A) (A) (A) (A) (A) (A) (A) (A) (A) (A) (A) (A)
                 (A) (A) (A) (A) (A) (A) (A) (A) (A) (A) (A) (A)
                 (A) (A) (A) (A) (A) (A) (A) (A) (A) (A) (A) (A)
                 (A) (A) (A) (A) (A) (A) (A) (A) (A) (A) (A) (A)
                 (A) (A) (A) (A) (A) (A) (A) (A) (A) (A) (A) (A)
                 (A) (A) (A) (A) (A) (A) (A) (A) (A) (A) (A) (A)
                 (A) (A) (A) (A) (A) (A) (A) (A) (A) (A) (A) (A)
                 (A) (A) (A) (A) (A) (A) (A) (A) (A) (A) (A) (A)
                 (A) (A) (A) (A) (A) (A) (A) (A) (A) (A) (A) (A)
                 (A) (A) (A) (A) (A) (A) (A) (A) (A) (A) (A) (A)
                 (A) (A) (A) (A) (A) (A) (A) (A) (A) (A) (A) (A)
                 (A) (A) (A) (A) (A) (A) (A) (A) (A) (A) (A) (A)
                 (A) (A) (A) (A) (A) (A) (A) (A) (A) (A) (A) (A)
                 (A) (A) (A) (A) (A) (A) (A) (A) (A) (A) (A) (A)
                 (A) (A) (A) (A) (A) (A) (A) (A) (A) (A) (A) (A)
                 (A) (A) (A) (A) (A) (A) (A) (A) (A) (A) (A) (A)
                 (A) (A) (A) (A) (A) (A) (A) (A) (A) (A) (A) (A)
                 (A) (A) (A) (A) (A) (A) (A) (A) (A) (A) (A) (A)
                 (A) (A) (A) (A) (A) (A) (A) (A) (A) (A) (A) (A)
                 (A) (A) (A) (A) (A) (A) (A) (A) (A) (A) (A) (A)
                 (A) (A) (A) (A) (A) (A) (A) (A) (A) (A) (A) (A)
                 (A) (A) (A) (A) (A) (A) (A) (A) (A) (A) (A) (A)
                 (A) (A) (A) (A) (A) (A) (A) (A) (A) (A) (A) (A)
                 (A) (A) (A) (A) (A) (A) (A) (A) (A) (A) (A) (A)
                 (A) (A) (A) (A) (A) (A) (A) (A) (A) (A) (A) (A)
                 (A) (A) (A) (A) (A) (A) (A) (A) (A) (A) (A) (A)
                 (A) (A) (A) (A) (A) (A) (A) (A) (A) (A) (A) (A)
                 (A) (A) (A) (A) (A) (A) (A) (A) (A) (A) (A) (A)
                 (A) (A) (A) (A) (A) (A) (A) (A) (A) (A) (A) (A)
                 (A) (A) (A) (A) (A) (A) (A) (A) (A) (A) (A) (A)
                 (A) (A) (A) (A) (A) (A) (A) (A) (A) (A) (A) (A)
                 (A) (A) (A) (A) (A) (A) (A) (A) (A) (A) (A) (A)
                 (A) (A) (A) (A) (A) (A) (A) (A) (A) (A) (A) (A)
                 (A) (A) (A) (A) (A) (A) (A) (A) (A) (A) (A) (A)
                 (A) (A) (A) (A) (A) (A) (A) (A) (A) (A) (A) (A)
                 (A) (A) (A) (A) (A) (A) (A) (A) (A) (A) (A) (A)
                 (A) (A) (A) (A) (A) (A) (A) (A) (A) (A) (A) (A)
                 (A) (A) (A) (A) (A) (A) (A) (A) (A) (A) (A) (A)
                 (A) (A) (A) (A) (A) (A) (A) (A) (A) (A) (A) (A)
                 (A) (A) (A) (A) (A) (A) (A) (A) (A) (A) (A) (A)
                 (A) (A) (A) (A) (A) (A) (A) (A) (A) (A) (A) (A)
                 (A) (A) (A) (A) (A) (A) (A) (A) (A) (A) (A) (A)
                 (A) (A) (A) (A) (A) (A) (A) (A) (A) (A) (A) (A)
                 (A) (A) (A) (A) (A) (A) (A) (A) (A) (A) (A) (A)
                 (A) (A) (A) (A) (A) (A) (A) (A) (A) (A) (A) (A)
                 (A) (A) (A) (A) (A) (A) (A) (A) (A) (A) (A) (A)
                 (A) (A) (A) (A) (A) (A) (A) (A) (A) (A) (A) (A)
                 (A) (A) (A) (A) (A) (A) (A) (A) (A) (A) (A) (A)
                 (A) (A) (A) (A) (A) (A) (A) (A) (A) (A) (A) (A)
                 (A) (A) (A) (A) (A) (A) (A) (A) (A) (A) (A) (A)
                 (A) (A) (A) (A) (A) (A) (A) (A) (A) (A) (A) (A)
                 (A) (A) (A) (A) (A) (A) (A) (A) (A) (A) (A) (A)
                 (A) (A) (A) (A) (A) (A) (A) (A) (A) (A) (A) (A)
                 (A) (A) (A) (A) (A) (A) (A) (A) (A) (A) (A) (A)
                 (A) (A) (A) (A) (A) (A) (A) (A) (A) (A) (A) (A)
                 (A) (A) (A) (A) (A) (A) (A) (A) (A) (A) (A) (A)
                 (A) (A) (A) (A) (A) (A) (A) (A) (A) (A) (A) (A)
                 (A) (A) (A) (A) (A) (A) (A) (A) (A) (A) (A) (A)
                 (A) (A) (A) (A) (A) (A) (A) (A) (A) (A) (A) (A)
                 (A) (A) (A) (A) (A) (A) (A) (A) (A) (A) (A) (A)
                 (A) (A) (A) (A) (A) (A) (A) (A) (A) (A) (A) (A)
                 (A) (A) (A) (A) (A) (A) (A) (A) (A) (A) (A) (A)
                 (A) (A) (A) (A) (A) (A) (A) (A) (A) (A) (A) (A)
                 (A) (A) (A) (A) (A) (A) (A) (A) (A) (A) (A) (A)
                 (A) (A) (A) (A) (A) (A) (A) (A) (A) (A) (A) (A)
                 (A) (A) (A) (A) (A) (A) (A) (A) (A) (A) (A) (A)
                 (A) (A) (A) (A) (A) (A) (A) (A) (A) (A) (A) (A)
                 (A) (A) (A) (A) (A) (A) (A) (A) (A) (A) (A) (A)
                 (A) (A) (A) (A) (A) (A) (A) (A) (A) (A) (A) (A)
                 (A) (A) (A) (A) (A) (A) (A) (A) (A) (A) (A) (A)
                 (A) (A) (A) (A) (A) (A) (A) (A) (A) (A) (A) (A)
                 (A) (A) (A) (A) (A) (A) (A) (A) (A) (A) (A) (A)
                 (A) (A) (A) (A) (A) (A) (A) (A) (A) (A) (A) (A)
                 (A) (A) (A) (A) (A) (A) (A) (A) (A) (A) (A) (A)
                 (A) (A) (A) (A) (A) (A) (A) (A) (A) (A) (A) (A)
                 (A) (A) (A) (A) (A) (A) (A) (A) (A) (A) (A) (A)
                 (A) (A) (A) (A) (A) (A) (A) (A) (A) (A) (A) (A)
                 (A) (A) (A) (A) (A) (A) (A) (A) (A) (A) (A) (A)
                 (A) (A) (A) (A) (A) (A) (A) (A) (A) (A) (A) (A)
                 (A) (A) (A) (A) (A) (A) (A) (A) (A) (A) (A) (A)
                 (A) (A) (A) (A) (A) (A) (A) (A) (A) (A) (A) (A)
                 (A) (A) (A) (A) (A) (A) (A) (A) (A) (A) (A) (A)
                 (A) (A) (A) (A) (A) (A) (A) (A) (A) (A) (A) (A)
                 (A) (A) (A) (A) (A) (A) (A) (A) (A) (A) (A) (A)
                 (A) (A) (A) (A) (A) (A) (A) (A) (A) (A) (A) (A)
                 (A) (A) (A) (A) (A) (A) (A) (A) (A) (A) (A) (A)
                 (A) (A) (A) (A) (A) (A) (A) (A) (A) (A) (A) (A)
                 (A) (A) (A) (A) (A) (A) (A) (A) (A) (A) (A) (A)
                 (A) (A) (A) (A) (A) (A) (A) (A) (A) (A) (A) (A)
                 (A) (A) (A) (A) (A) (A) (A) (A) (A) (A) (A) (A)
                 (A) (A) (A) (A) (A) (A) (A) (A) (A) (A) (A) (A)
                 (A) (A) (A) (A) (A) (A) (A) (A) (A) (A) (A) (A)
                 (A) (A) (A) (A) (A) (A) (A) (A) (A) (A) (A) (A)
                 (A) (A) (A) (A) (A) (A) (A) (A) (A) (A) (A) (A)
                 (A) (A) (A) (A) (A) (A) (A) (A) (A) (A) (A) (A)
                 (A) (A) (A) (A) (A) (A) (A) (A) (A) (A) (A) (A)
                 (A) (A) (A) (A) (A) (A) (A) (A) (A) (A) (A) (A)
                 (A) (A) (A) (A) (A) (A) (A) (A) (A) (A) (A) (A)
                 (A) (A) (A) (A) (A) (A) (A) (A) (A) (A)
 The electronic state is 6-A.
 Alpha  occ. eigenvalues -- -256.46500 -89.05023 -30.29282 -26.10957 -26.10926
 Alpha  occ. eigenvalues --  -26.10850 -19.26739 -19.25761 -19.19901 -19.19602
 Alpha  occ. eigenvalues --  -14.47224 -14.42532 -14.39805 -14.39712 -14.39375
 Alpha  occ. eigenvalues --  -14.39254 -10.37394 -10.36420 -10.31285 -10.28501
 Alpha  occ. eigenvalues --  -10.27762 -10.27572 -10.27457 -10.27445 -10.27357
 Alpha  occ. eigenvalues --  -10.27338 -10.27329 -10.27256 -10.27012 -10.26774
 Alpha  occ. eigenvalues --  -10.26115 -10.26111 -10.25970 -10.25561 -10.25328
 Alpha  occ. eigenvalues --  -10.25135 -10.25105 -10.25075 -10.24997 -10.24987
 Alpha  occ. eigenvalues --  -10.24931 -10.24927 -10.24920 -10.24745 -10.24665
 Alpha  occ. eigenvalues --  -10.24624 -10.24294 -10.24272 -10.24036 -10.24004
 Alpha  occ. eigenvalues --  -10.23382 -10.23296 -10.22648 -10.22337 -10.22237
 Alpha  occ. eigenvalues --  -10.22093 -10.21799  -8.03024  -5.96636  -5.96375
 Alpha  occ. eigenvalues --   -5.95917  -3.71897  -2.48042  -2.48011  -2.47833
 Alpha  occ. eigenvalues --   -1.16307  -1.15291  -1.08023  -1.04605  -1.04537
 Alpha  occ. eigenvalues --   -1.02976  -1.02320  -1.01314  -1.00785  -0.94055
 Alpha  occ. eigenvalues --   -0.87691  -0.86515  -0.86102  -0.85912  -0.85095
 Alpha  occ. eigenvalues --   -0.84774  -0.84579  -0.83832  -0.82091  -0.81737
 Alpha  occ. eigenvalues --   -0.81058  -0.79165  -0.79078  -0.78313  -0.77151
 Alpha  occ. eigenvalues --   -0.76039  -0.74827  -0.73972  -0.73693  -0.73152
 Alpha  occ. eigenvalues --   -0.72231  -0.71298  -0.70650  -0.70535  -0.69426
 Alpha  occ. eigenvalues --   -0.69157  -0.67644  -0.66324  -0.65067  -0.64533
 Alpha  occ. eigenvalues --   -0.64267  -0.63830  -0.62542  -0.62472  -0.61937
 Alpha  occ. eigenvalues --   -0.59760  -0.58560  -0.58289  -0.58011  -0.56590
 Alpha  occ. eigenvalues --   -0.55416  -0.55335  -0.55317  -0.54617  -0.53668
 Alpha  occ. eigenvalues --   -0.52913  -0.52413  -0.51941  -0.51789  -0.51539
 Alpha  occ. eigenvalues --   -0.51414  -0.51138  -0.50986  -0.50291  -0.50127
 Alpha  occ. eigenvalues --   -0.49575  -0.49546  -0.49023  -0.48657  -0.48377
 Alpha  occ. eigenvalues --   -0.48230  -0.47848  -0.47535  -0.47452  -0.47233
 Alpha  occ. eigenvalues --   -0.47061  -0.46978  -0.46512  -0.46413  -0.46342
 Alpha  occ. eigenvalues --   -0.46065  -0.45820  -0.45583  -0.45514  -0.44957
 Alpha  occ. eigenvalues --   -0.44520  -0.44121  -0.43786  -0.43704  -0.43612
 Alpha  occ. eigenvalues --   -0.43462  -0.43282  -0.43111  -0.42937  -0.42857
 Alpha  occ. eigenvalues --   -0.42758  -0.42556  -0.42392  -0.42120  -0.42057
 Alpha  occ. eigenvalues --   -0.41806  -0.41618  -0.41228  -0.40908  -0.40775
 Alpha  occ. eigenvalues --   -0.40537  -0.40415  -0.40283  -0.39668  -0.39364
 Alpha  occ. eigenvalues --   -0.39322  -0.38920  -0.38640  -0.38584  -0.38176
 Alpha  occ. eigenvalues --   -0.38021  -0.37452  -0.37101  -0.36471  -0.36367
 Alpha  occ. eigenvalues --   -0.35837  -0.35321  -0.34550  -0.33889  -0.33463
 Alpha  occ. eigenvalues --   -0.31847  -0.31786  -0.30558  -0.29845  -0.29693
 Alpha  occ. eigenvalues --   -0.28284  -0.27709  -0.26548  -0.26402  -0.25628
 Alpha  occ. eigenvalues --   -0.25556  -0.24910  -0.24661  -0.24306  -0.23058
 Alpha  occ. eigenvalues --   -0.22421
 Alpha virt. eigenvalues --   -0.11155  -0.10921  -0.07167  -0.05817  -0.03946
 Alpha virt. eigenvalues --   -0.03033  -0.01615  -0.01298   0.00834   0.01792
 Alpha virt. eigenvalues --    0.01898   0.02482   0.02914   0.03372   0.03632
 Alpha virt. eigenvalues --    0.03971   0.04302   0.04557   0.04741   0.05052
 Alpha virt. eigenvalues --    0.05399   0.05483   0.05775   0.06134   0.06287
 Alpha virt. eigenvalues --    0.06401   0.07049   0.07136   0.07303   0.07600
 Alpha virt. eigenvalues --    0.07801   0.08135   0.08315   0.08464   0.08900
 Alpha virt. eigenvalues --    0.09125   0.09492   0.09816   0.10090   0.10496
 Alpha virt. eigenvalues --    0.10555   0.10828   0.10890   0.11222   0.11516
 Alpha virt. eigenvalues --    0.11558   0.11882   0.11918   0.12253   0.12501
 Alpha virt. eigenvalues --    0.12505   0.12728   0.13011   0.13148   0.13351
 Alpha virt. eigenvalues --    0.13627   0.13659   0.13708   0.14144   0.14245
 Alpha virt. eigenvalues --    0.14494   0.14633   0.14693   0.14887   0.14981
 Alpha virt. eigenvalues --    0.15440   0.15795   0.15903   0.16005   0.16125
 Alpha virt. eigenvalues --    0.16504   0.16653   0.16944   0.16956   0.17133
 Alpha virt. eigenvalues --    0.17283   0.17587   0.17815   0.18060   0.18123
 Alpha virt. eigenvalues --    0.18184   0.18682   0.18784   0.19018   0.19292
 Alpha virt. eigenvalues --    0.19556   0.19730   0.19848   0.20003   0.20178
 Alpha virt. eigenvalues --    0.20430   0.20637   0.20795   0.20924   0.21098
 Alpha virt. eigenvalues --    0.21336   0.21415   0.21824   0.21947   0.22013
 Alpha virt. eigenvalues --    0.22293   0.22586   0.22833   0.22879   0.23222
 Alpha virt. eigenvalues --    0.23509   0.23698   0.23840   0.24025   0.24449
 Alpha virt. eigenvalues --    0.24697   0.24861   0.25048   0.25189   0.25439
 Alpha virt. eigenvalues --    0.25551   0.25837   0.25980   0.26074   0.26397
 Alpha virt. eigenvalues --    0.26611   0.26788   0.26997   0.27271   0.27548
 Alpha virt. eigenvalues --    0.27655   0.27792   0.28220   0.28414   0.28651
 Alpha virt. eigenvalues --    0.28762   0.29267   0.29459   0.29548   0.29667
 Alpha virt. eigenvalues --    0.29725   0.30085   0.30167   0.30525   0.30641
 Alpha virt. eigenvalues --    0.30983   0.31117   0.31356   0.31635   0.31892
 Alpha virt. eigenvalues --    0.32041   0.32216   0.32328   0.32550   0.32719
 Alpha virt. eigenvalues --    0.33240   0.33399   0.33425   0.33752   0.34093
 Alpha virt. eigenvalues --    0.34193   0.34315   0.34825   0.34924   0.35089
 Alpha virt. eigenvalues --    0.35311   0.35642   0.35736   0.35963   0.36096
 Alpha virt. eigenvalues --    0.36253   0.36420   0.36659   0.36815   0.36933
 Alpha virt. eigenvalues --    0.37433   0.37646   0.37836   0.37969   0.38374
 Alpha virt. eigenvalues --    0.38454   0.38657   0.38800   0.38986   0.39176
 Alpha virt. eigenvalues --    0.39280   0.39692   0.39864   0.40144   0.40233
 Alpha virt. eigenvalues --    0.40514   0.40600   0.40959   0.41077   0.41189
 Alpha virt. eigenvalues --    0.41348   0.41540   0.41779   0.41964   0.42147
 Alpha virt. eigenvalues --    0.42393   0.42532   0.42596   0.42709   0.43001
 Alpha virt. eigenvalues --    0.43256   0.43309   0.43539   0.43668   0.43777
 Alpha virt. eigenvalues --    0.43916   0.44229   0.44267   0.44488   0.44639
 Alpha virt. eigenvalues --    0.44821   0.44975   0.45232   0.45427   0.45507
 Alpha virt. eigenvalues --    0.45654   0.45696   0.46027   0.46097   0.46442
 Alpha virt. eigenvalues --    0.46633   0.46782   0.46896   0.47169   0.47226
 Alpha virt. eigenvalues --    0.47501   0.47611   0.47789   0.47926   0.48285
 Alpha virt. eigenvalues --    0.48427   0.48548   0.48618   0.48983   0.49022
 Alpha virt. eigenvalues --    0.49159   0.49329   0.49545   0.49639   0.49757
 Alpha virt. eigenvalues --    0.49828   0.50046   0.50066   0.50256   0.50559
 Alpha virt. eigenvalues --    0.50730   0.50906   0.51031   0.51230   0.51276
 Alpha virt. eigenvalues --    0.51671   0.51798   0.52077   0.52197   0.52286
 Alpha virt. eigenvalues --    0.52455   0.52558   0.52764   0.53048   0.53253
 Alpha virt. eigenvalues --    0.53562   0.53676   0.53856   0.54194   0.54257
 Alpha virt. eigenvalues --    0.54319   0.54431   0.54726   0.55074   0.55242
 Alpha virt. eigenvalues --    0.55277   0.55646   0.55795   0.56225   0.56457
 Alpha virt. eigenvalues --    0.56601   0.56949   0.57132   0.57376   0.57682
 Alpha virt. eigenvalues --    0.58002   0.58135   0.58509   0.58673   0.58827
 Alpha virt. eigenvalues --    0.58934   0.59278   0.59756   0.59833   0.60172
 Alpha virt. eigenvalues --    0.60212   0.60749   0.60991   0.61068   0.61355
 Alpha virt. eigenvalues --    0.61613   0.61877   0.62016   0.62169   0.62361
 Alpha virt. eigenvalues --    0.62705   0.62874   0.63048   0.63272   0.63564
 Alpha virt. eigenvalues --    0.63866   0.63931   0.64750   0.64859   0.65364
 Alpha virt. eigenvalues --    0.65485   0.65763   0.66037   0.66246   0.66648
 Alpha virt. eigenvalues --    0.66857   0.67037   0.67482   0.67571   0.68131
 Alpha virt. eigenvalues --    0.68288   0.68392   0.68822   0.68970   0.69147
 Alpha virt. eigenvalues --    0.69353   0.69773   0.70096   0.70190   0.70383
 Alpha virt. eigenvalues --    0.70849   0.71139   0.71394   0.71642   0.71848
 Alpha virt. eigenvalues --    0.72025   0.72376   0.72892   0.73150   0.73429
 Alpha virt. eigenvalues --    0.73856   0.73957   0.74274   0.74534   0.74749
 Alpha virt. eigenvalues --    0.74973   0.75215   0.75279   0.75595   0.75776
 Alpha virt. eigenvalues --    0.76134   0.76516   0.76722   0.77295   0.77690
 Alpha virt. eigenvalues --    0.77775   0.78357   0.78482   0.78649   0.78970
 Alpha virt. eigenvalues --    0.79198   0.79730   0.79897   0.80364   0.80516
 Alpha virt. eigenvalues --    0.81176   0.81339   0.81689   0.81812   0.82349
 Alpha virt. eigenvalues --    0.82456   0.82679   0.82878   0.83593   0.83802
 Alpha virt. eigenvalues --    0.83860   0.84039   0.84630   0.84828   0.85103
 Alpha virt. eigenvalues --    0.85456   0.85804   0.85967   0.86480   0.86867
 Alpha virt. eigenvalues --    0.87047   0.87223   0.87489   0.87893   0.88130
 Alpha virt. eigenvalues --    0.88415   0.88499   0.88803   0.89053   0.89361
 Alpha virt. eigenvalues --    0.89828   0.90139   0.90252   0.90616   0.90686
 Alpha virt. eigenvalues --    0.91057   0.91451   0.91790   0.92154   0.92232
 Alpha virt. eigenvalues --    0.92322   0.92579   0.92745   0.92845   0.93073
 Alpha virt. eigenvalues --    0.93696   0.93956   0.94120   0.94210   0.94565
 Alpha virt. eigenvalues --    0.94884   0.95287   0.95381   0.95513   0.95674
 Alpha virt. eigenvalues --    0.96216   0.96437   0.96776   0.97061   0.97136
 Alpha virt. eigenvalues --    0.97571   0.97791   0.98067   0.98365   0.98545
 Alpha virt. eigenvalues --    0.98619   0.98860   0.99324   0.99455   0.99595
 Alpha virt. eigenvalues --    0.99838   1.00267   1.00641   1.00726   1.01143
 Alpha virt. eigenvalues --    1.01239   1.01594   1.01774   1.02204   1.02472
 Alpha virt. eigenvalues --    1.02687   1.03085   1.03359   1.03597   1.03779
 Alpha virt. eigenvalues --    1.04091   1.04264   1.04434   1.04721   1.04881
 Alpha virt. eigenvalues --    1.05353   1.05477   1.05942   1.06013   1.06436
 Alpha virt. eigenvalues --    1.06773   1.07047   1.07291   1.07393   1.07794
 Alpha virt. eigenvalues --    1.08246   1.08579   1.09061   1.09136   1.09676
 Alpha virt. eigenvalues --    1.09939   1.10314   1.10568   1.11262   1.11454
 Alpha virt. eigenvalues --    1.11696   1.11957   1.12153   1.12408   1.12634
 Alpha virt. eigenvalues --    1.13225   1.13463   1.14062   1.14069   1.14254
 Alpha virt. eigenvalues --    1.14603   1.14947   1.15085   1.15336   1.15699
 Alpha virt. eigenvalues --    1.16247   1.16374   1.16645   1.16954   1.17623
 Alpha virt. eigenvalues --    1.18059   1.18249   1.18578   1.19083   1.19525
 Alpha virt. eigenvalues --    1.19867   1.20155   1.20378   1.20883   1.21182
 Alpha virt. eigenvalues --    1.21757   1.22178   1.22335   1.23068   1.23205
 Alpha virt. eigenvalues --    1.23633   1.23854   1.24347   1.24479   1.24946
 Alpha virt. eigenvalues --    1.25119   1.25533   1.25944   1.26269   1.26552
 Alpha virt. eigenvalues --    1.26904   1.27760   1.27844   1.28173   1.28226
 Alpha virt. eigenvalues --    1.28562   1.28753   1.28867   1.29001   1.29245
 Alpha virt. eigenvalues --    1.29418   1.29808   1.30198   1.30754   1.31187
 Alpha virt. eigenvalues --    1.31319   1.31470   1.32103   1.32413   1.33210
 Alpha virt. eigenvalues --    1.33366   1.33966   1.34288   1.34392   1.34863
 Alpha virt. eigenvalues --    1.35058   1.35608   1.36115   1.36502   1.36964
 Alpha virt. eigenvalues --    1.37361   1.37640   1.37893   1.38697   1.39273
 Alpha virt. eigenvalues --    1.40091   1.40606   1.40839   1.41166   1.41591
 Alpha virt. eigenvalues --    1.42109   1.42444   1.43293   1.43404   1.43863
 Alpha virt. eigenvalues --    1.44281   1.44293   1.44771   1.45164   1.45687
 Alpha virt. eigenvalues --    1.46091   1.46378   1.46631   1.46901   1.47146
 Alpha virt. eigenvalues --    1.47338   1.47567   1.47733   1.48069   1.48421
 Alpha virt. eigenvalues --    1.48755   1.49171   1.49414   1.49652   1.50101
 Alpha virt. eigenvalues --    1.50118   1.50514   1.51044   1.51142   1.51342
 Alpha virt. eigenvalues --    1.51830   1.51979   1.52314   1.52497   1.52564
 Alpha virt. eigenvalues --    1.52825   1.53132   1.53347   1.53717   1.53907
 Alpha virt. eigenvalues --    1.54191   1.54361   1.54646   1.54936   1.55199
 Alpha virt. eigenvalues --    1.55370   1.55513   1.55675   1.56197   1.56286
 Alpha virt. eigenvalues --    1.56671   1.56915   1.57108   1.57231   1.57370
 Alpha virt. eigenvalues --    1.57505   1.57758   1.58268   1.58545   1.58926
 Alpha virt. eigenvalues --    1.59283   1.59461   1.59831   1.59898   1.60202
 Alpha virt. eigenvalues --    1.60458   1.60630   1.60916   1.61123   1.61490
 Alpha virt. eigenvalues --    1.61671   1.62057   1.62219   1.62505   1.62732
 Alpha virt. eigenvalues --    1.63062   1.63147   1.63713   1.63885   1.64116
 Alpha virt. eigenvalues --    1.64282   1.64552   1.64628   1.65158   1.65387
 Alpha virt. eigenvalues --    1.65475   1.65775   1.65943   1.66291   1.66726
 Alpha virt. eigenvalues --    1.67047   1.67316   1.67497   1.67818   1.68058
 Alpha virt. eigenvalues --    1.68510   1.68600   1.69334   1.69471   1.69907
 Alpha virt. eigenvalues --    1.70459   1.70653   1.70914   1.71338   1.71624
 Alpha virt. eigenvalues --    1.71697   1.72032   1.72236   1.72409   1.72671
 Alpha virt. eigenvalues --    1.72898   1.73426   1.73696   1.74074   1.74448
 Alpha virt. eigenvalues --    1.74595   1.74857   1.75363   1.75616   1.75814
 Alpha virt. eigenvalues --    1.76109   1.76644   1.76840   1.77151   1.77494
 Alpha virt. eigenvalues --    1.77705   1.78160   1.78476   1.78734   1.79014
 Alpha virt. eigenvalues --    1.79714   1.80193   1.80335   1.80489   1.81061
 Alpha virt. eigenvalues --    1.81162   1.81473   1.82267   1.82434   1.82492
 Alpha virt. eigenvalues --    1.82930   1.83230   1.83629   1.83775   1.84177
 Alpha virt. eigenvalues --    1.84621   1.84998   1.85479   1.85692   1.86042
 Alpha virt. eigenvalues --    1.86462   1.86954   1.87437   1.87741   1.87907
 Alpha virt. eigenvalues --    1.88053   1.88213   1.88695   1.89136   1.89605
 Alpha virt. eigenvalues --    1.90092   1.90376   1.90715   1.91115   1.91205
 Alpha virt. eigenvalues --    1.92021   1.92220   1.92512   1.92859   1.92931
 Alpha virt. eigenvalues --    1.93407   1.94047   1.94285   1.94570   1.94701
 Alpha virt. eigenvalues --    1.94739   1.95120   1.95433   1.95681   1.95950
 Alpha virt. eigenvalues --    1.96092   1.96700   1.96793   1.97151   1.97597
 Alpha virt. eigenvalues --    1.97802   1.98288   1.98441   1.98966   1.99115
 Alpha virt. eigenvalues --    1.99313   1.99629   1.99803   2.00230   2.00827
 Alpha virt. eigenvalues --    2.01051   2.01456   2.02093   2.02252   2.02442
 Alpha virt. eigenvalues --    2.02785   2.03271   2.03612   2.03635   2.04285
 Alpha virt. eigenvalues --    2.04807   2.05057   2.05425   2.05880   2.06120
 Alpha virt. eigenvalues --    2.06479   2.06609   2.07489   2.07824   2.08084
 Alpha virt. eigenvalues --    2.08187   2.08409   2.08936   2.09399   2.09597
 Alpha virt. eigenvalues --    2.09880   2.10489   2.10824   2.11167   2.11353
 Alpha virt. eigenvalues --    2.11401   2.11654   2.12015   2.12369   2.12473
 Alpha virt. eigenvalues --    2.13037   2.13534   2.13694   2.14069   2.14206
 Alpha virt. eigenvalues --    2.14395   2.14555   2.14712   2.15844   2.15974
 Alpha virt. eigenvalues --    2.16507   2.17025   2.17352   2.17432   2.17852
 Alpha virt. eigenvalues --    2.18193   2.18639   2.18802   2.19120   2.19331
 Alpha virt. eigenvalues --    2.19946   2.19984   2.20315   2.21003   2.21083
 Alpha virt. eigenvalues --    2.21531   2.21912   2.22000   2.22495   2.22920
 Alpha virt. eigenvalues --    2.23369   2.23496   2.24397   2.24668   2.25063
 Alpha virt. eigenvalues --    2.25801   2.26048   2.26292   2.26768   2.27016
 Alpha virt. eigenvalues --    2.27222   2.27586   2.28263   2.28570   2.28861
 Alpha virt. eigenvalues --    2.29086   2.29550   2.29897   2.30091   2.30474
 Alpha virt. eigenvalues --    2.30603   2.31024   2.31548   2.31766   2.32272
 Alpha virt. eigenvalues --    2.32708   2.33035   2.33260   2.33439   2.33840
 Alpha virt. eigenvalues --    2.34030   2.34381   2.34780   2.35036   2.35524
 Alpha virt. eigenvalues --    2.36136   2.36662   2.36743   2.37186   2.37546
 Alpha virt. eigenvalues --    2.37593   2.38093   2.38314   2.38678   2.38802
 Alpha virt. eigenvalues --    2.39445   2.39695   2.39938   2.40562   2.41048
 Alpha virt. eigenvalues --    2.41255   2.41882   2.42044   2.42539   2.42950
 Alpha virt. eigenvalues --    2.43232   2.43542   2.43794   2.44155   2.44441
 Alpha virt. eigenvalues --    2.44521   2.45584   2.45700   2.46261   2.46456
 Alpha virt. eigenvalues --    2.46486   2.46821   2.47595   2.47737   2.48337
 Alpha virt. eigenvalues --    2.48920   2.49207   2.49722   2.49935   2.50403
 Alpha virt. eigenvalues --    2.50709   2.50914   2.51781   2.51968   2.52140
 Alpha virt. eigenvalues --    2.52744   2.53262   2.53577   2.53677   2.54002
 Alpha virt. eigenvalues --    2.54332   2.54508   2.55330   2.55563   2.55770
 Alpha virt. eigenvalues --    2.56086   2.56231   2.56693   2.56966   2.57206
 Alpha virt. eigenvalues --    2.57409   2.57548   2.57858   2.57974   2.58279
 Alpha virt. eigenvalues --    2.58633   2.58796   2.59203   2.59356   2.59534
 Alpha virt. eigenvalues --    2.60523   2.60714   2.60874   2.61397   2.61740
 Alpha virt. eigenvalues --    2.62037   2.62181   2.62405   2.62683   2.63028
 Alpha virt. eigenvalues --    2.63246   2.63583   2.63672   2.63978   2.64100
 Alpha virt. eigenvalues --    2.64604   2.65091   2.65167   2.65340   2.65741
 Alpha virt. eigenvalues --    2.65933   2.66312   2.66431   2.66940   2.67311
 Alpha virt. eigenvalues --    2.67488   2.68075   2.68266   2.68719   2.68843
 Alpha virt. eigenvalues --    2.68945   2.69208   2.69421   2.69706   2.70164
 Alpha virt. eigenvalues --    2.70314   2.70510   2.70927   2.71220   2.71369
 Alpha virt. eigenvalues --    2.71631   2.71831   2.72324   2.72518   2.73183
 Alpha virt. eigenvalues --    2.73538   2.74322   2.74600   2.74843   2.75216
 Alpha virt. eigenvalues --    2.75324   2.75590   2.75872   2.76230   2.76473
 Alpha virt. eigenvalues --    2.76736   2.77062   2.77354   2.77810   2.78109
 Alpha virt. eigenvalues --    2.78339   2.78744   2.78927   2.79059   2.79509
 Alpha virt. eigenvalues --    2.79864   2.79929   2.80307   2.80874   2.81253
 Alpha virt. eigenvalues --    2.81472   2.81823   2.82213   2.82481   2.82897
 Alpha virt. eigenvalues --    2.83058   2.83462   2.83947   2.84479   2.84629
 Alpha virt. eigenvalues --    2.85236   2.85501   2.85777   2.86084   2.86629
 Alpha virt. eigenvalues --    2.86914   2.87050   2.87427   2.87802   2.88053
 Alpha virt. eigenvalues --    2.88826   2.89258   2.89327   2.89584   2.90273
 Alpha virt. eigenvalues --    2.90605   2.91012   2.91381   2.91586   2.91726
 Alpha virt. eigenvalues --    2.92268   2.92366   2.92760   2.92883   2.93182
 Alpha virt. eigenvalues --    2.93451   2.93778   2.94015   2.94691   2.94876
 Alpha virt. eigenvalues --    2.95207   2.95323   2.95579   2.96137   2.96677
 Alpha virt. eigenvalues --    2.96842   2.96964   2.97087   2.97591   2.97677
 Alpha virt. eigenvalues --    2.97878   2.98488   2.98600   2.98811   2.99147
 Alpha virt. eigenvalues --    2.99636   2.99908   3.00255   3.00507   3.00701
 Alpha virt. eigenvalues --    3.01030   3.01460   3.01764   3.01908   3.02090
 Alpha virt. eigenvalues --    3.02736   3.03082   3.03389   3.03538   3.03841
 Alpha virt. eigenvalues --    3.04518   3.04665   3.04866   3.04973   3.05506
 Alpha virt. eigenvalues --    3.05800   3.05923   3.06046   3.06305   3.06479
 Alpha virt. eigenvalues --    3.07110   3.07440   3.07691   3.08084   3.08287
 Alpha virt. eigenvalues --    3.08469   3.08733   3.08848   3.09190   3.09313
 Alpha virt. eigenvalues --    3.09476   3.09691   3.10222   3.10453   3.10731
 Alpha virt. eigenvalues --    3.11036   3.11090   3.12108   3.12263   3.12407
 Alpha virt. eigenvalues --    3.12503   3.12712   3.13341   3.13478   3.13705
 Alpha virt. eigenvalues --    3.14111   3.14203   3.14380   3.14759   3.14913
 Alpha virt. eigenvalues --    3.15239   3.15431   3.15673   3.15872   3.16002
 Alpha virt. eigenvalues --    3.16389   3.16879   3.17140   3.17166   3.17379
 Alpha virt. eigenvalues --    3.17573   3.17808   3.18023   3.18402   3.18706
 Alpha virt. eigenvalues --    3.19222   3.19366   3.19405   3.19628   3.20126
 Alpha virt. eigenvalues --    3.20473   3.20522   3.20547   3.21043   3.21152
 Alpha virt. eigenvalues --    3.21391   3.21564   3.22079   3.22123   3.22250
 Alpha virt. eigenvalues --    3.22431   3.22939   3.23079   3.23517   3.23867
 Alpha virt. eigenvalues --    3.24067   3.24635   3.24781   3.24901   3.24921
 Alpha virt. eigenvalues --    3.25258   3.25600   3.25660   3.25950   3.26278
 Alpha virt. eigenvalues --    3.26576   3.26704   3.27032   3.27158   3.27439
 Alpha virt. eigenvalues --    3.27765   3.27910   3.28484   3.28621   3.28679
 Alpha virt. eigenvalues --    3.29029   3.29297   3.29537   3.29723   3.29953
 Alpha virt. eigenvalues --    3.30211   3.30513   3.30805   3.31116   3.31304
 Alpha virt. eigenvalues --    3.31490   3.31992   3.32125   3.32471   3.32911
 Alpha virt. eigenvalues --    3.33111   3.33238   3.33407   3.33914   3.33961
 Alpha virt. eigenvalues --    3.34486   3.34544   3.34793   3.35207   3.35274
 Alpha virt. eigenvalues --    3.35614   3.35812   3.35858   3.36020   3.36274
 Alpha virt. eigenvalues --    3.36472   3.36668   3.36719   3.37167   3.37419
 Alpha virt. eigenvalues --    3.37646   3.37733   3.38090   3.38229   3.39041
 Alpha virt. eigenvalues --    3.39241   3.39291   3.39696   3.39850   3.40270
 Alpha virt. eigenvalues --    3.40441   3.40615   3.40734   3.41669   3.41845
 Alpha virt. eigenvalues --    3.42106   3.42539   3.42603   3.42811   3.43103
 Alpha virt. eigenvalues --    3.43211   3.43493   3.44019   3.44185   3.44700
 Alpha virt. eigenvalues --    3.45040   3.45287   3.45503   3.45621   3.45926
 Alpha virt. eigenvalues --    3.46165   3.46503   3.46596   3.47276   3.47533
 Alpha virt. eigenvalues --    3.47736   3.48064   3.48281   3.48704   3.48873
 Alpha virt. eigenvalues --    3.49254   3.49397   3.49739   3.50088   3.50130
 Alpha virt. eigenvalues --    3.50710   3.50880   3.51233   3.51541   3.51722
 Alpha virt. eigenvalues --    3.52082   3.52638   3.53176   3.53323   3.53738
 Alpha virt. eigenvalues --    3.53993   3.54339   3.54741   3.55171   3.55418
 Alpha virt. eigenvalues --    3.55693   3.55944   3.56462   3.56590   3.56961
 Alpha virt. eigenvalues --    3.57362   3.57758   3.58048   3.58453   3.58959
 Alpha virt. eigenvalues --    3.59321   3.59654   3.59805   3.60028   3.60484
 Alpha virt. eigenvalues --    3.61014   3.61288   3.61474   3.62239   3.62522
 Alpha virt. eigenvalues --    3.63009   3.63109   3.63243   3.63672   3.64050
 Alpha virt. eigenvalues --    3.64509   3.64681   3.65291   3.65833   3.66210
 Alpha virt. eigenvalues --    3.66454   3.66793   3.66869   3.67276   3.67666
 Alpha virt. eigenvalues --    3.68179   3.68904   3.69193   3.69449   3.69800
 Alpha virt. eigenvalues --    3.70936   3.71149   3.71174   3.71656   3.71950
 Alpha virt. eigenvalues --    3.72272   3.72413   3.72566   3.72981   3.73471
 Alpha virt. eigenvalues --    3.73668   3.73839   3.73902   3.74393   3.74858
 Alpha virt. eigenvalues --    3.75155   3.75201   3.75573   3.76338   3.76654
 Alpha virt. eigenvalues --    3.76848   3.77184   3.77543   3.78078   3.79141
 Alpha virt. eigenvalues --    3.79784   3.80175   3.80499   3.81404   3.81545
 Alpha virt. eigenvalues --    3.82147   3.82317   3.82712   3.83734   3.83841
 Alpha virt. eigenvalues --    3.84184   3.85006   3.85443   3.85614   3.86298
 Alpha virt. eigenvalues --    3.86367   3.86847   3.87199   3.87334   3.87699
 Alpha virt. eigenvalues --    3.88028   3.88454   3.88755   3.89029   3.89278
 Alpha virt. eigenvalues --    3.89520   3.90495   3.90880   3.90914   3.91579
 Alpha virt. eigenvalues --    3.92205   3.92285   3.92434   3.92847   3.93376
 Alpha virt. eigenvalues --    3.93969   3.94375   3.94787   3.95413   3.96037
 Alpha virt. eigenvalues --    3.96240   3.96808   3.97026   3.97609   3.98116
 Alpha virt. eigenvalues --    3.98200   3.98401   3.98731   3.99752   3.99906
 Alpha virt. eigenvalues --    4.00377   4.00790   4.00851   4.01477   4.02541
 Alpha virt. eigenvalues --    4.02772   4.03511   4.04101   4.04447   4.04957
 Alpha virt. eigenvalues --    4.05376   4.05916   4.06690   4.07094   4.07665
 Alpha virt. eigenvalues --    4.08341   4.09243   4.09451   4.10001   4.10152
 Alpha virt. eigenvalues --    4.11132   4.11753   4.11860   4.12738   4.13447
 Alpha virt. eigenvalues --    4.13559   4.14895   4.15270   4.15849   4.15960
 Alpha virt. eigenvalues --    4.16910   4.17123   4.17594   4.18057   4.18605
 Alpha virt. eigenvalues --    4.19145   4.19859   4.20006   4.20594   4.20921
 Alpha virt. eigenvalues --    4.21064   4.21898   4.22515   4.22745   4.23591
 Alpha virt. eigenvalues --    4.23838   4.24524   4.24699   4.25135   4.25862
 Alpha virt. eigenvalues --    4.26226   4.26936   4.27135   4.27790   4.28099
 Alpha virt. eigenvalues --    4.28501   4.29142   4.29322   4.30279   4.31251
 Alpha virt. eigenvalues --    4.31881   4.33039   4.33874   4.33934   4.34211
 Alpha virt. eigenvalues --    4.34788   4.35543   4.36847   4.37216   4.37354
 Alpha virt. eigenvalues --    4.37741   4.38159   4.38811   4.38976   4.39128
 Alpha virt. eigenvalues --    4.39794   4.40359   4.40579   4.40930   4.41030
 Alpha virt. eigenvalues --    4.42217   4.42243   4.42686   4.42739   4.43203
 Alpha virt. eigenvalues --    4.44014   4.44358   4.45363   4.46184   4.46426
 Alpha virt. eigenvalues --    4.47226   4.48240   4.48574   4.48646   4.49342
 Alpha virt. eigenvalues --    4.49673   4.50507   4.51075   4.52055   4.53791
 Alpha virt. eigenvalues --    4.54408   4.54682   4.55206   4.55584   4.56006
 Alpha virt. eigenvalues --    4.57366   4.57538   4.58642   4.58839   4.59477
 Alpha virt. eigenvalues --    4.59882   4.60526   4.61375   4.61583   4.61893
 Alpha virt. eigenvalues --    4.62549   4.63855   4.64012   4.64411   4.65833
 Alpha virt. eigenvalues --    4.66303   4.66887   4.67345   4.67597   4.68818
 Alpha virt. eigenvalues --    4.69266   4.70164   4.71135   4.71465   4.71705
 Alpha virt. eigenvalues --    4.71784   4.72597   4.73020   4.73323   4.73929
 Alpha virt. eigenvalues --    4.74141   4.74722   4.75157   4.77120   4.77591
 Alpha virt. eigenvalues --    4.78192   4.78559   4.79300   4.79484   4.80366
 Alpha virt. eigenvalues --    4.81197   4.82203   4.83144   4.83409   4.83820
 Alpha virt. eigenvalues --    4.84190   4.84746   4.85518   4.86939   4.87631
 Alpha virt. eigenvalues --    4.88052   4.89040   4.89515   4.89932   4.91481
 Alpha virt. eigenvalues --    4.92259   4.93353   4.93807   4.94785   4.95462
 Alpha virt. eigenvalues --    4.95614   4.96006   4.97277   4.98075   4.98758
 Alpha virt. eigenvalues --    4.98956   5.00615   5.01061   5.01273   5.01613
 Alpha virt. eigenvalues --    5.02529   5.03053   5.04510   5.05440   5.06766
 Alpha virt. eigenvalues --    5.06838   5.07332   5.08767   5.09415   5.10087
 Alpha virt. eigenvalues --    5.10640   5.11491   5.13251   5.14469   5.15509
 Alpha virt. eigenvalues --    5.16322   5.17760   5.18092   5.18590   5.19075
 Alpha virt. eigenvalues --    5.19449   5.19770   5.20514   5.20743   5.21437
 Alpha virt. eigenvalues --    5.22503   5.24222   5.24733   5.25222   5.25703
 Alpha virt. eigenvalues --    5.26860   5.27939   5.28291   5.28970   5.30361
 Alpha virt. eigenvalues --    5.31306   5.33002   5.34234   5.35259   5.35739
 Alpha virt. eigenvalues --    5.36386   5.38440   5.38832   5.39118   5.40115
 Alpha virt. eigenvalues --    5.40462   5.41992   5.43573   5.43959   5.45712
 Alpha virt. eigenvalues --    5.47215   5.48049   5.48852   5.49521   5.49939
 Alpha virt. eigenvalues --    5.50810   5.52382   5.53139   5.55057   5.55323
 Alpha virt. eigenvalues --    5.58038   5.58565   5.58910   5.59617   5.60568
 Alpha virt. eigenvalues --    5.60966   5.63150   5.63627   5.64722   5.65151
 Alpha virt. eigenvalues --    5.65779   5.67687   5.70838   5.71286   5.72159
 Alpha virt. eigenvalues --    5.73034   5.74380   5.76687   5.77953   5.80786
 Alpha virt. eigenvalues --    5.85198   5.87008   5.88776   5.91127   5.93805
 Alpha virt. eigenvalues --    5.95402   5.97083   5.97765   5.98661   6.00395
 Alpha virt. eigenvalues --    6.01415   6.01871   6.03405   6.03450   6.07740
 Alpha virt. eigenvalues --    6.08360   6.10799   6.12365   6.13246   6.14389
 Alpha virt. eigenvalues --    6.16347   6.20579   6.24521   6.24931   6.26820
 Alpha virt. eigenvalues --    6.31606   6.31688   6.35246   6.36009   6.39036
 Alpha virt. eigenvalues --    6.39467   6.44477   6.44805   6.46915   6.48633
 Alpha virt. eigenvalues --    6.49073   6.52816   6.63368   6.63704   6.69755
 Alpha virt. eigenvalues --    6.72240   6.79834   6.84925   6.87340   6.92633
 Alpha virt. eigenvalues --    6.94318   6.95431   7.04747   7.06250   7.09976
 Alpha virt. eigenvalues --    7.12831   7.29200   7.30773   9.26842   9.47481
 Alpha virt. eigenvalues --    9.58670  20.13331  22.20100  22.20417  22.40267
 Alpha virt. eigenvalues --   22.43441  22.49729  22.50850  22.54946  22.56826
 Alpha virt. eigenvalues --   22.58572  22.60032  22.62180  22.63505  22.65417
 Alpha virt. eigenvalues --   22.67336  22.75421  22.76174  22.78077  22.94124
 Alpha virt. eigenvalues --   22.95630  22.98284  23.00653  23.00772  23.03886
 Alpha virt. eigenvalues --   23.09977  23.10431  23.19478  23.23806  23.29135
 Alpha virt. eigenvalues --   23.36341  23.37423  23.40038  23.42729  23.46858
 Alpha virt. eigenvalues --   23.50217  23.53513  23.55850  23.63162  23.73203
 Alpha virt. eigenvalues --   23.82856  23.86529  23.97521  32.44146  32.79238
 Alpha virt. eigenvalues --   32.99937  33.05944  33.12148  33.16348  43.90063
 Alpha virt. eigenvalues --   43.91481  43.93356  43.96842
  Beta  occ. eigenvalues -- -256.46355 -89.04924 -30.19532 -26.02741 -26.02724
  Beta  occ. eigenvalues --  -26.02679 -19.26739 -19.25761 -19.19901 -19.19602
  Beta  occ. eigenvalues --  -14.47211 -14.42235 -14.39473 -14.39387 -14.39083
  Beta  occ. eigenvalues --  -14.38939 -10.37393 -10.36420 -10.31257 -10.28486
  Beta  occ. eigenvalues --  -10.27708 -10.27553 -10.27470 -10.27428 -10.27335
  Beta  occ. eigenvalues --  -10.27322 -10.27308 -10.27241 -10.26999 -10.26760
  Beta  occ. eigenvalues --  -10.26112 -10.26107 -10.26015 -10.25544 -10.25324
  Beta  occ. eigenvalues --  -10.25138 -10.25083 -10.25072 -10.24999 -10.24961
  Beta  occ. eigenvalues --  -10.24932 -10.24898 -10.24893 -10.24751 -10.24628
  Beta  occ. eigenvalues --  -10.24582 -10.24292 -10.24247 -10.24009 -10.24003
  Beta  occ. eigenvalues --  -10.23380 -10.23294 -10.22646 -10.22335 -10.22235
  Beta  occ. eigenvalues --  -10.22091 -10.21797  -8.02919  -5.96567  -5.96245
  Beta  occ. eigenvalues --   -5.95712  -3.48721  -2.23282  -2.22994  -2.22937
  Beta  occ. eigenvalues --   -1.16306  -1.15291  -1.07865  -1.04604  -1.04537
  Beta  occ. eigenvalues --   -1.02620  -1.01988  -1.00975  -1.00440  -0.93724
  Beta  occ. eigenvalues --   -0.87639  -0.86266  -0.86010  -0.85768  -0.85018
  Beta  occ. eigenvalues --   -0.84624  -0.84397  -0.83640  -0.82037  -0.81617
  Beta  occ. eigenvalues --   -0.80937  -0.79108  -0.79015  -0.78228  -0.77113
  Beta  occ. eigenvalues --   -0.75978  -0.74762  -0.73855  -0.73603  -0.73012
  Beta  occ. eigenvalues --   -0.72107  -0.71167  -0.70514  -0.70379  -0.69357
  Beta  occ. eigenvalues --   -0.69086  -0.67297  -0.66286  -0.65018  -0.64418
  Beta  occ. eigenvalues --   -0.64150  -0.63739  -0.62466  -0.62172  -0.61642
  Beta  occ. eigenvalues --   -0.59596  -0.58402  -0.58099  -0.57872  -0.56051
  Beta  occ. eigenvalues --   -0.55278  -0.55169  -0.55108  -0.53624  -0.53268
  Beta  occ. eigenvalues --   -0.52306  -0.51939  -0.51468  -0.51398  -0.51279
  Beta  occ. eigenvalues --   -0.50921  -0.50271  -0.50032  -0.49886  -0.49582
  Beta  occ. eigenvalues --   -0.49320  -0.48762  -0.48240  -0.48069  -0.47562
  Beta  occ. eigenvalues --   -0.47383  -0.47076  -0.46861  -0.46679  -0.46471
  Beta  occ. eigenvalues --   -0.46058  -0.45847  -0.45749  -0.45547  -0.44894
  Beta  occ. eigenvalues --   -0.44778  -0.44367  -0.44106  -0.43899  -0.43775
  Beta  occ. eigenvalues --   -0.43656  -0.43493  -0.43368  -0.42949  -0.42902
  Beta  occ. eigenvalues --   -0.42853  -0.42573  -0.42368  -0.42150  -0.42017
  Beta  occ. eigenvalues --   -0.41915  -0.41616  -0.41161  -0.40892  -0.40718
  Beta  occ. eigenvalues --   -0.40437  -0.40389  -0.40206  -0.39737  -0.39484
  Beta  occ. eigenvalues --   -0.39225  -0.39139  -0.38821  -0.38631  -0.38254
  Beta  occ. eigenvalues --   -0.38144  -0.37845  -0.37679  -0.37229  -0.36333
  Beta  occ. eigenvalues --   -0.36088  -0.35785  -0.35304  -0.34561  -0.34101
  Beta  occ. eigenvalues --   -0.33885  -0.33235  -0.31827  -0.31697  -0.29896
  Beta  occ. eigenvalues --   -0.29699  -0.29009  -0.28233  -0.27405  -0.26715
  Beta  occ. eigenvalues --   -0.25904  -0.25452  -0.25129  -0.24340  -0.23018
  Beta  occ. eigenvalues --   -0.22244
  Beta virt. eigenvalues --   -0.12592  -0.12464  -0.10201  -0.09248  -0.08915
  Beta virt. eigenvalues --   -0.07161  -0.05738  -0.04235  -0.03886  -0.03016
  Beta virt. eigenvalues --   -0.02557  -0.01608  -0.00685   0.00999   0.01854
  Beta virt. eigenvalues --    0.02288   0.02775   0.03167   0.03648   0.03701
  Beta virt. eigenvalues --    0.04064   0.04374   0.04702   0.04967   0.05178
  Beta virt. eigenvalues --    0.05474   0.05650   0.05878   0.06214   0.06398
  Beta virt. eigenvalues --    0.06481   0.07095   0.07162   0.07367   0.07632
  Beta virt. eigenvalues --    0.07872   0.08222   0.08379   0.08545   0.09037
  Beta virt. eigenvalues --    0.09166   0.09540   0.09879   0.10171   0.10558
  Beta virt. eigenvalues --    0.10693   0.10860   0.11045   0.11318   0.11567
  Beta virt. eigenvalues --    0.11658   0.11976   0.12047   0.12338   0.12543
  Beta virt. eigenvalues --    0.12596   0.12824   0.13056   0.13194   0.13424
  Beta virt. eigenvalues --    0.13695   0.13722   0.13761   0.14253   0.14287
  Beta virt. eigenvalues --    0.14555   0.14674   0.14747   0.14940   0.15151
  Beta virt. eigenvalues --    0.15483   0.15831   0.15957   0.16091   0.16268
  Beta virt. eigenvalues --    0.16527   0.16698   0.17022   0.17087   0.17235
  Beta virt. eigenvalues --    0.17445   0.17830   0.17887   0.18172   0.18226
  Beta virt. eigenvalues --    0.18282   0.18750   0.18829   0.19111   0.19327
  Beta virt. eigenvalues --    0.19629   0.19792   0.19980   0.20080   0.20307
  Beta virt. eigenvalues --    0.20468   0.20750   0.20857   0.21049   0.21260
  Beta virt. eigenvalues --    0.21425   0.21557   0.22068   0.22102   0.22201
  Beta virt. eigenvalues --    0.22499   0.22791   0.22947   0.23052   0.23425
  Beta virt. eigenvalues --    0.23593   0.23942   0.24103   0.24214   0.24515
  Beta virt. eigenvalues --    0.24740   0.25123   0.25133   0.25268   0.25567
  Beta virt. eigenvalues --    0.25614   0.25994   0.26157   0.26318   0.26498
  Beta virt. eigenvalues --    0.26800   0.27037   0.27224   0.27473   0.27751
  Beta virt. eigenvalues --    0.27762   0.27863   0.28472   0.28569   0.28933
  Beta virt. eigenvalues --    0.28947   0.29339   0.29590   0.29726   0.29795
  Beta virt. eigenvalues --    0.29804   0.30192   0.30244   0.30593   0.30712
  Beta virt. eigenvalues --    0.31067   0.31265   0.31481   0.31835   0.32102
  Beta virt. eigenvalues --    0.32154   0.32392   0.32481   0.32629   0.32863
  Beta virt. eigenvalues --    0.33332   0.33512   0.33611   0.33979   0.34179
  Beta virt. eigenvalues --    0.34334   0.34431   0.34990   0.35050   0.35297
  Beta virt. eigenvalues --    0.35492   0.35725   0.35908   0.36192   0.36193
  Beta virt. eigenvalues --    0.36375   0.36624   0.36835   0.36972   0.37146
  Beta virt. eigenvalues --    0.37554   0.37885   0.38013   0.38334   0.38506
  Beta virt. eigenvalues --    0.38680   0.38767   0.38924   0.39061   0.39301
  Beta virt. eigenvalues --    0.39411   0.39841   0.39954   0.40235   0.40378
  Beta virt. eigenvalues --    0.40593   0.40717   0.41120   0.41189   0.41322
  Beta virt. eigenvalues --    0.41544   0.41693   0.41899   0.42067   0.42298
  Beta virt. eigenvalues --    0.42543   0.42662   0.42679   0.42806   0.43112
  Beta virt. eigenvalues --    0.43344   0.43438   0.43683   0.43758   0.43882
  Beta virt. eigenvalues --    0.44004   0.44315   0.44401   0.44569   0.44781
  Beta virt. eigenvalues --    0.44876   0.45067   0.45358   0.45515   0.45564
  Beta virt. eigenvalues --    0.45731   0.45739   0.46089   0.46173   0.46525
  Beta virt. eigenvalues --    0.46668   0.46824   0.46956   0.47222   0.47309
  Beta virt. eigenvalues --    0.47559   0.47683   0.47878   0.48043   0.48363
  Beta virt. eigenvalues --    0.48497   0.48620   0.48683   0.49079   0.49146
  Beta virt. eigenvalues --    0.49256   0.49414   0.49627   0.49737   0.49841
  Beta virt. eigenvalues --    0.49884   0.50129   0.50156   0.50290   0.50635
  Beta virt. eigenvalues --    0.50818   0.51002   0.51125   0.51314   0.51415
  Beta virt. eigenvalues --    0.51797   0.51882   0.52177   0.52338   0.52415
  Beta virt. eigenvalues --    0.52576   0.52714   0.52879   0.53157   0.53348
  Beta virt. eigenvalues --    0.53658   0.53765   0.53993   0.54299   0.54317
  Beta virt. eigenvalues --    0.54418   0.54516   0.54800   0.55205   0.55346
  Beta virt. eigenvalues --    0.55355   0.55814   0.55928   0.56340   0.56587
  Beta virt. eigenvalues --    0.56649   0.56996   0.57213   0.57438   0.57777
  Beta virt. eigenvalues --    0.58072   0.58355   0.58694   0.58763   0.58904
  Beta virt. eigenvalues --    0.59033   0.59427   0.59927   0.60023   0.60255
  Beta virt. eigenvalues --    0.60312   0.60845   0.61072   0.61165   0.61479
  Beta virt. eigenvalues --    0.61749   0.61989   0.62068   0.62490   0.62531
  Beta virt. eigenvalues --    0.62832   0.62959   0.63236   0.63381   0.63700
  Beta virt. eigenvalues --    0.64014   0.64131   0.64863   0.65009   0.65528
  Beta virt. eigenvalues --    0.65683   0.65914   0.66244   0.66363   0.66884
  Beta virt. eigenvalues --    0.66950   0.67233   0.67655   0.67702   0.68309
  Beta virt. eigenvalues --    0.68495   0.68581   0.68929   0.69130   0.69307
  Beta virt. eigenvalues --    0.69471   0.69928   0.70216   0.70350   0.70492
  Beta virt. eigenvalues --    0.71003   0.71259   0.71481   0.71720   0.71956
  Beta virt. eigenvalues --    0.72169   0.72595   0.73075   0.73356   0.73564
[...]
 
              Baa    -0.0345    -4.625    -1.650    -1.543  0.7954  0.2557  0.5496
    38 C(13)  Bbb     0.0135     1.813     0.647     0.605 -0.5957  0.4974  0.6307
              Bcc     0.0209     2.811     1.003     0.938  0.1121  0.8290 -0.5479
 
              Baa    -0.0300    -4.029    -1.438    -1.344  0.8910  0.2969 -0.3435
    39 C(13)  Bbb    -0.0278    -3.737    -1.333    -1.247  0.3640 -0.0148  0.9313
              Bcc     0.0579     7.766     2.771     2.590 -0.2715  0.9548  0.1212
 
              Baa    -0.0184    -2.475    -0.883    -0.825  0.7959  0.6048  0.0273
    40 C(13)  Bbb     0.0029     0.387     0.138     0.129  0.0307 -0.0853  0.9959
              Bcc     0.0156     2.088     0.745     0.696 -0.6046  0.7918  0.0864
 
              Baa    -0.0217    -2.908    -1.037    -0.970  0.6467  0.7621  0.0316
    41 C(13)  Bbb     0.0088     1.175     0.419     0.392  0.3360 -0.3219  0.8851
              Bcc     0.0129     1.733     0.618     0.578  0.6847 -0.5618 -0.4643
 
              Baa    -0.0312    -4.182    -1.492    -1.395  0.0665 -0.2404  0.9684
    42 C(13)  Bbb    -0.0284    -3.810    -1.359    -1.271  0.3282  0.9218  0.2063
              Bcc     0.0596     7.991     2.852     2.666  0.9423 -0.3041 -0.1402
 
              Baa    -0.0052    -0.700    -0.250    -0.233  0.9047  0.4015 -0.1422
    43 C(13)  Bbb    -0.0047    -0.635    -0.227    -0.212  0.1880 -0.0769  0.9791
              Bcc     0.0099     1.335     0.476     0.445 -0.3822  0.9126  0.1450
 
              Baa    -0.0053    -0.714    -0.255    -0.238  0.4191  0.9052 -0.0708
    44 C(13)  Bbb    -0.0049    -0.660    -0.235    -0.220  0.1505  0.0076  0.9886
              Bcc     0.0102     1.374     0.490     0.458  0.8954 -0.4250 -0.1330
 
              Baa    -0.0040    -0.531    -0.189    -0.177  0.4285  0.7813 -0.4538
    45 C(13)  Bbb    -0.0026    -0.354    -0.126    -0.118 -0.0139  0.5079  0.8613
              Bcc     0.0066     0.885     0.316     0.295  0.9034 -0.3628  0.2285
 
              Baa    -0.0018    -0.245    -0.087    -0.082 -0.0448  0.0454  0.9980
    46 C(13)  Bbb    -0.0017    -0.235    -0.084    -0.078  0.3440  0.9386 -0.0272
              Bcc     0.0036     0.480     0.171     0.160  0.9379 -0.3421  0.0576
 
              Baa    -0.0017     0.124     0.044     0.041  0.1445  0.8417  0.5202
    47 O(17)  Bbb    -0.0015     0.112     0.040     0.037 -0.1842 -0.4937  0.8499
              Bcc     0.0033    -0.236    -0.084    -0.079  0.9722 -0.2186  0.0837
 
              Baa    -0.0013     0.096     0.034     0.032  0.3278  0.7506 -0.5737
    48 O(17)  Bbb    -0.0012     0.089     0.032     0.030  0.2818  0.5019  0.8177
              Bcc     0.0026    -0.185    -0.066    -0.062  0.9017 -0.4298 -0.0470
 
              Baa    -0.1829    -7.056    -2.518    -2.354 -0.7008  0.7109  0.0589
    49 N(14)  Bbb    -0.1240    -4.782    -1.706    -1.595  0.1181  0.0342  0.9924
              Bcc     0.3069    11.838     4.224     3.949  0.7035  0.7025 -0.1079
 
              Baa    -0.1706    -6.579    -2.348    -2.195  0.6754  0.6946 -0.2477
    50 N(14)  Bbb    -0.1278    -4.931    -1.759    -1.645  0.2899  0.0588  0.9552
              Bcc     0.2984    11.510     4.107     3.839 -0.6781  0.7170  0.1617
 
              Baa    -0.1920    -7.406    -2.642    -2.470 -0.6552  0.7136  0.2478
    51 N(14)  Bbb    -0.1072    -4.133    -1.475    -1.379  0.2288 -0.1252  0.9654
              Bcc     0.2992    11.539     4.117     3.849  0.7200  0.6892 -0.0812
 
              Baa    -0.1950    -7.519    -2.683    -2.508  0.7205  0.6935  0.0019
    52 N(14)  Bbb    -0.1088    -4.198    -1.498    -1.400  0.1058 -0.1126  0.9880
              Bcc     0.3038    11.717     4.181     3.908 -0.6854  0.7116  0.1545
 
              Baa    -0.1595    -2.762    -0.986    -0.921  0.1840 -0.0291  0.9825
    53 Fe(57) Bbb     0.0651     1.126     0.402     0.376  0.5451  0.8348 -0.0773
              Bcc     0.0945     1.636     0.584     0.546  0.8179 -0.5498 -0.1695
 
              Baa    -0.0102    -5.450    -1.945    -1.818  0.8167  0.5412  0.2003
    54 H(1)   Bbb    -0.0092    -4.934    -1.761    -1.646 -0.4398  0.3592  0.8231
              Bcc     0.0195    10.383     3.705     3.464 -0.3735  0.7604 -0.5313
 
              Baa    -0.0056    -2.983    -1.064    -0.995  0.7400  0.6662  0.0930
    55 H(1)   Bbb    -0.0051    -2.746    -0.980    -0.916 -0.5416  0.5082  0.6696
              Bcc     0.0107     5.729     2.044     1.911  0.3989 -0.5459  0.7368
 
              Baa    -0.0124    -6.632    -2.366    -2.212  0.6270  0.7728 -0.0986
    56 H(1)   Bbb    -0.0111    -5.907    -2.108    -1.970 -0.4536  0.4650  0.7603
              Bcc     0.0235    12.539     4.474     4.183  0.6333 -0.4320  0.6421
 
              Baa    -0.0096    -5.099    -1.820    -1.701  0.9979  0.0646  0.0049
    57 H(1)   Bbb    -0.0074    -3.928    -1.401    -1.310 -0.0619  0.9289  0.3652
              Bcc     0.0169     9.027     3.221     3.011  0.0190 -0.3648  0.9309
 
              Baa    -0.0176    -9.365    -3.342    -3.124  0.8024 -0.5095 -0.3107
    58 H(1)   Bbb    -0.0152    -8.083    -2.884    -2.696  0.5848  0.5675  0.5796
              Bcc     0.0327    17.448     6.226     5.820 -0.1190 -0.6468  0.7533
 
              Baa    -0.0130    -6.950    -2.480    -2.318  0.1512  0.9692 -0.1944
    59 H(1)   Bbb    -0.0121    -6.434    -2.296    -2.146 -0.6759  0.2448  0.6951
              Bcc     0.0251    13.384     4.776     4.464  0.7213  0.0263  0.6921
 
              Baa    -0.0096    -5.104    -1.821    -1.703 -0.3883  0.9154 -0.1062
    60 H(1)   Bbb    -0.0074    -3.973    -1.418    -1.325  0.8197  0.2904 -0.4937
              Bcc     0.0170     9.077     3.239     3.028  0.4211  0.2788  0.8631
 
              Baa    -0.0181    -9.680    -3.454    -3.229  0.7242 -0.6672 -0.1742
    61 H(1)   Bbb    -0.0153    -8.162    -2.912    -2.723 -0.3425 -0.5673  0.7489
              Bcc     0.0334    17.842     6.366     5.951  0.5985  0.4827  0.6394
 
              Baa    -0.0030    -1.596    -0.569    -0.532  0.4874  0.8325  0.2635
    62 H(1)   Bbb    -0.0028    -1.518    -0.542    -0.506 -0.3297 -0.1039  0.9383
              Bcc     0.0058     3.114     1.111     1.039  0.8085 -0.5442  0.2238
 
              Baa    -0.0041    -2.170    -0.774    -0.724 -0.3520 -0.5737  0.7396
    63 H(1)   Bbb    -0.0036    -1.927    -0.688    -0.643  0.0949  0.7642  0.6379
              Bcc     0.0077     4.097     1.462     1.367  0.9312 -0.2947  0.2146
 
              Baa    -0.0033    -1.782    -0.636    -0.594  0.0442 -0.2800  0.9590
    64 H(1)   Bbb    -0.0031    -1.635    -0.583    -0.545  0.5978  0.7765  0.1992
              Bcc     0.0064     3.416     1.219     1.139  0.8004 -0.5645 -0.2017
 
              Baa    -0.0042    -2.251    -0.803    -0.751  0.2824  0.1100  0.9530
    65 H(1)   Bbb    -0.0037    -1.957    -0.698    -0.653  0.2548  0.9491 -0.1851
              Bcc     0.0079     4.209     1.502     1.404  0.9248 -0.2951 -0.2399
 
              Baa    -0.0010    -0.507    -0.181    -0.169 -0.1010 -0.3952  0.9130
    66 H(1)   Bbb    -0.0009    -0.502    -0.179    -0.167  0.3850  0.8307  0.4021
              Bcc     0.0019     1.009     0.360     0.336  0.9174 -0.3921 -0.0683
 
              Baa    -0.0009    -0.494    -0.176    -0.165 -0.2614  0.1591  0.9520
    67 H(1)   Bbb    -0.0009    -0.488    -0.174    -0.163 -0.3085  0.9208 -0.2386
              Bcc     0.0018     0.982     0.350     0.327  0.9146  0.3560  0.1916
 
              Baa    -0.0041    -2.164    -0.772    -0.722 -0.3276  0.5256  0.7851
    68 H(1)   Bbb    -0.0037    -1.976    -0.705    -0.659 -0.1013  0.8067 -0.5823
              Bcc     0.0078     4.140     1.477     1.381  0.9394  0.2703  0.2111
 
              Baa    -0.0031    -1.662    -0.593    -0.554 -0.5067  0.8519 -0.1325
    69 H(1)   Bbb    -0.0030    -1.582    -0.565    -0.528 -0.2750 -0.0140  0.9614
              Bcc     0.0061     3.244     1.158     1.082  0.8171  0.5235  0.2413
 
              Baa    -0.0041    -2.164    -0.772    -0.722  0.2932 -0.1805  0.9389
    70 H(1)   Bbb    -0.0036    -1.912    -0.682    -0.638 -0.2381  0.9373  0.2545
              Bcc     0.0076     4.076     1.454     1.360  0.9259  0.2982 -0.2318
 
              Baa    -0.0032    -1.697    -0.606    -0.566  0.0394  0.2538  0.9665
    71 H(1)   Bbb    -0.0030    -1.584    -0.565    -0.529 -0.5897  0.7867 -0.1825
              Bcc     0.0062     3.282     1.171     1.095  0.8066  0.5628 -0.1807
 
              Baa    -0.0032    -1.685    -0.601    -0.562  0.1886  0.0324  0.9815
    72 H(1)   Bbb    -0.0029    -1.557    -0.555    -0.519  0.8080 -0.5732 -0.1363
              Bcc     0.0061     3.242     1.157     1.081  0.5582  0.8188 -0.1343
 
              Baa    -0.0038    -2.009    -0.717    -0.670  0.5956 -0.3126  0.7400
    73 H(1)   Bbb    -0.0034    -1.822    -0.650    -0.608  0.7087 -0.2293 -0.6673
              Bcc     0.0072     3.832     1.367     1.278  0.3782  0.9218  0.0849
 
              Baa    -0.0040    -2.125    -0.758    -0.709 -0.2564  0.3165  0.9133
    74 H(1)   Bbb    -0.0036    -1.907    -0.680    -0.636  0.9171 -0.2186  0.3333
              Bcc     0.0076     4.032     1.439     1.345  0.3051  0.9231 -0.2342
 
              Baa    -0.0084    -4.491    -1.602    -1.498  0.1253 -0.0173  0.9920
    75 H(1)   Bbb    -0.0071    -3.779    -1.348    -1.260  0.0077  0.9998  0.0165
              Bcc     0.0155     8.269     2.951     2.758  0.9921 -0.0056 -0.1254
 
              Baa    -0.0034    -1.831    -0.653    -0.611  0.8714  0.2888  0.3965
    76 H(1)   Bbb    -0.0034    -1.799    -0.642    -0.600 -0.2365 -0.4608  0.8554
              Bcc     0.0068     3.630     1.295     1.211 -0.4298  0.8392  0.3333
 
              Baa    -0.0043    -2.314    -0.826    -0.772  0.0853 -0.0978  0.9915
    77 H(1)   Bbb    -0.0037    -1.987    -0.709    -0.663  0.9672  0.2473 -0.0588
              Bcc     0.0081     4.301     1.535     1.435 -0.2394  0.9640  0.1157
 
              Baa    -0.0034    -1.798    -0.642    -0.600 -0.4133 -0.2487  0.8759
    78 H(1)   Bbb    -0.0031    -1.679    -0.599    -0.560  0.7600  0.4356  0.4823
              Bcc     0.0065     3.477     1.241     1.160 -0.5015  0.8651  0.0090
 
              Baa    -0.0089    -4.775    -1.704    -1.593  0.1284 -0.1056  0.9861
    79 H(1)   Bbb    -0.0068    -3.608    -1.287    -1.203  0.9910 -0.0254 -0.1317
              Bcc     0.0157     8.382     2.991     2.796  0.0390  0.9941  0.1013
 
              Baa    -0.0036    -1.914    -0.683    -0.638  0.2847 -0.5304  0.7985
    80 H(1)   Bbb    -0.0031    -1.675    -0.598    -0.559 -0.3663  0.7096  0.6019
              Bcc     0.0067     3.589     1.281     1.197  0.8859  0.4639 -0.0077
 
              Baa    -0.0042    -2.266    -0.809    -0.756  0.2719 -0.1920  0.9430
    81 H(1)   Bbb    -0.0037    -1.968    -0.702    -0.657 -0.1948  0.9486  0.2493
              Bcc     0.0079     4.234     1.511     1.412  0.9424  0.2514 -0.2206
 
              Baa    -0.0035    -1.851    -0.660    -0.617 -0.4986  0.8584  0.1206
    82 H(1)   Bbb    -0.0033    -1.739    -0.621    -0.580  0.3524  0.0736  0.9330
              Bcc     0.0067     3.590     1.281     1.198  0.7920  0.5076 -0.3392
 
              Baa    -0.0083    -4.428    -1.580    -1.477  0.2535 -0.0721  0.9646
    83 H(1)   Bbb    -0.0071    -3.813    -1.361    -1.272  0.0327  0.9973  0.0660
              Bcc     0.0154     8.241     2.940     2.749  0.9668 -0.0148 -0.2552
 
              Baa    -0.0041    -2.181    -0.778    -0.727  0.2950  0.0237  0.9552
    84 H(1)   Bbb    -0.0036    -1.943    -0.693    -0.648  0.9199  0.2633 -0.2906
              Bcc     0.0077     4.124     1.471     1.376 -0.2584  0.9644  0.0559
 
              Baa    -0.0033    -1.760    -0.628    -0.587  0.7887  0.2054  0.5795
    85 H(1)   Bbb    -0.0030    -1.617    -0.577    -0.539 -0.4377 -0.4743  0.7638
              Bcc     0.0063     3.377     1.205     1.126 -0.4317  0.8561  0.2842
 
              Baa    -0.0032    -1.697    -0.606    -0.566  0.6807  0.4030 -0.6117
    86 H(1)   Bbb    -0.0031    -1.638    -0.585    -0.546  0.5097  0.3392  0.7907
              Bcc     0.0063     3.335     1.190     1.113 -0.5262  0.8500 -0.0255
 
              Baa    -0.0082    -4.384    -1.564    -1.462  0.2026 -0.0118  0.9792
    87 H(1)   Bbb    -0.0072    -3.820    -1.363    -1.274  0.9792 -0.0080 -0.2027
              Bcc     0.0154     8.204     2.927     2.737  0.0102  0.9999  0.0100
 
              Baa    -0.0032    -1.686    -0.601    -0.562  0.1501  0.9830  0.1055
    88 H(1)   Bbb    -0.0029    -1.526    -0.545    -0.509  0.9368 -0.1073 -0.3329
              Bcc     0.0060     3.212     1.146     1.071  0.3159 -0.1488  0.9370
 
              Baa    -0.0038    -2.052    -0.732    -0.684  0.7225  0.6638 -0.1934
    89 H(1)   Bbb    -0.0035    -1.890    -0.674    -0.631 -0.4680  0.6754  0.5699
              Bcc     0.0074     3.942     1.407     1.315  0.5089 -0.3213  0.7986
 
              Baa    -0.0037    -1.957    -0.698    -0.653 -0.4788  0.8141  0.3285
    90 H(1)   Bbb    -0.0034    -1.815    -0.648    -0.605  0.6783  0.5806 -0.4503
              Bcc     0.0071     3.772     1.346     1.258  0.5573 -0.0073  0.8303
 
              Baa    -0.0199   -10.614    -3.787    -3.541  0.1218  0.9925 -0.0096
    91 H(1)   Bbb    -0.0189   -10.073    -3.594    -3.360 -0.5996  0.0813  0.7961
              Bcc     0.0388    20.687     7.382     6.901  0.7909 -0.0912  0.6051
 
              Baa    -0.0060    -3.212    -1.146    -1.071  0.1307  0.9828  0.1308
    92 H(1)   Bbb    -0.0057    -3.016    -1.076    -1.006  0.9864 -0.1422  0.0825
              Bcc     0.0117     6.227     2.222     2.077 -0.0997 -0.1183  0.9880
 
              Baa    -0.0205   -10.948    -3.906    -3.652 -0.0262  0.9989  0.0380
    93 H(1)   Bbb    -0.0190   -10.143    -3.619    -3.383  0.8572  0.0030  0.5150
              Bcc     0.0395    21.091     7.526     7.035 -0.5143 -0.0460  0.8564
 
              Baa    -0.0030    -1.597    -0.570    -0.533  0.3988  0.8507 -0.3425
    94 H(1)   Bbb    -0.0024    -1.288    -0.459    -0.430  0.6422  0.0076  0.7665
              Bcc     0.0054     2.885     1.029     0.962  0.6547 -0.5256 -0.5433
 
              Baa    -0.0024    -1.301    -0.464    -0.434  0.5209  0.1922  0.8317
    95 H(1)   Bbb    -0.0017    -0.884    -0.315    -0.295  0.3462  0.8431 -0.4116
              Bcc     0.0041     2.184     0.779     0.729  0.7803 -0.5023 -0.3726
 
              Baa    -0.0034    -1.792    -0.639    -0.598  0.4019  0.9157  0.0016
    96 H(1)   Bbb    -0.0031    -1.673    -0.597    -0.558  0.1708 -0.0766  0.9823
              Bcc     0.0065     3.464     1.236     1.156  0.8996 -0.3946 -0.1872
 
              Baa    -0.0030    -1.606    -0.573    -0.536  0.8606 -0.4779  0.1759
    97 H(1)   Bbb    -0.0010    -0.553    -0.197    -0.184  0.0560  0.4321  0.9001
              Bcc     0.0040     2.159     0.770     0.720  0.5062  0.7648 -0.3986
 
              Baa    -0.0043    -2.278    -0.813    -0.760 -0.4818  0.5287  0.6988
    98 H(1)   Bbb    -0.0022    -1.184    -0.423    -0.395  0.7682 -0.1288  0.6271
              Bcc     0.0065     3.462     1.235     1.155  0.4216  0.8389 -0.3441
 
              Baa    -0.0040    -2.134    -0.761    -0.712  0.4346 -0.5878  0.6824
    99 H(1)   Bbb    -0.0026    -1.405    -0.501    -0.469  0.8029 -0.0905 -0.5893
              Bcc     0.0066     3.539     1.263     1.180  0.4081  0.8039  0.4326
 

 ---------------------------------------------------------------------------------

 1\1\GINC-NODE611\SP\UPBE1PBE\def2TZVP\C41H46Fe1N6O4S1(1+,6)\ZHARTOVSKA
 \20-Feb-2023\0\\# PBE1PBE/def2TZVP empiricaldispersion=GD3BJ int=(grid
 =ultrafine) geom=check guess=read scrf=(smd,solvent=Chloroform)\\351c_
 III_H_solv\\1,6\C,0,10.506,-8.059,15.816\C,0,10.646,-9.475,16.347\N,0,
 11.609,-10.329,15.917\C,0,9.806,-10.17,17.202999\C,0,11.386,-11.535,16
 .502001\N,0,10.281,-11.443,17.297001\C,0,9.901,-15.818,21.115999\C,0,8
 .608,-15.006,20.93\S,0,8.151,-14.706,19.209\C,0,8.392,-16.289,18.37999
 9\C,0,11.705,-15.247,17.135\C,0,7.609,-13.457,15.336\C,0,6.886,-11.003
 ,19.43\C,0,11.262,-12.316,20.955\C,0,10.647,-14.993,16.285\C,0,10.462,
 -15.551,15.035\C,0,9.322,-14.979,14.496\C,0,8.792,-14.154,15.459\C,0,8
 .722,-15.221,13.128\C,0,11.327,-16.6,14.394\C,0,10.913,-17.951,14.931\
 C,0,11.757,-19.049,14.31\O,0,12.606,-18.742001,13.48\O,0,11.154,-20.17
 3,14.12\C,0,7.06,-12.605,16.271999\C,0,5.813,-11.987,16.164\C,0,5.554,
 -11.363,17.382\C,0,6.7,-11.518,18.162001\C,0,4.877,-12.076,14.978\C,0,
 4.282,-10.647,17.806999\C,0,3.058,-11.55,17.913\C,0,8.014,-11.167,20.2
 15\C,0,8.233,-10.548,21.438999\C,0,9.538,-10.804,21.785999\C,0,10.029,
 -11.717,20.882999\C,0,7.296,-9.624,22.177999\C,0,10.314,-10.142,22.9\C
 ,0,9.856,-10.481,24.302999\C,0,11.751,-13.246,20.066\C,0,12.957,-13.92
 ,20.209999\C,0,13.035,-14.83,19.16\C,0,11.925,-14.622,18.348\C,0,13.97
 3,-13.709,21.320999\C,0,14.131,-15.841,18.905001\C,0,13.737,-17.233999
 ,19.374001\C,0,14.831,-18.243999,19.018999\O,0,14.501,-19.413,18.80400
 1\O,0,16.113001,-17.959,19.183001\N,0,9.628,-14.14,16.524\N,0,7.596,-1
 2.302,17.486\N,0,9.124,-11.881,19.898001\N,0,11.12,-13.672,18.924999\F
 e,0,9.405,-12.974,18.219\H,0,10.67399188,-15.17778236,21.48681556\H,0,
 9.72766535,-16.60955442,21.81478129\H,0,10.20082861,-16.23153754,20.17
 579184\H,0,7.8069836,-15.53246791,21.40550422\H,0,8.72936864,-14.06104
 649,21.41706521\H,0,9.30548383,-16.73268771,18.71702794\H,0,7.57385875
 ,-16.93957557,18.60868288\H,0,8.43967129,-16.13411822,17.32234164\H,0,
 13.59624653,-17.22336679,20.43464958\H,0,12.82249519,-17.52162495,18.8
 9876184\H,0,15.01448836,-15.53537176,19.42551969\H,0,14.33817516,-15.8
 7260544,17.85572527\H,0,16.78450501,-18.55363723,18.84081841\H,0,11.66
 446034,-20.97466485,13.98448726\H,0,11.04245449,-17.96381213,15.993062
 8\H,0,9.88282622,-18.12301905,14.69851036\H,0,12.3536577,-16.4161576,1
 4.6329057\H,0,11.19410514,-16.57770676,13.33251897\H,0,9.38262966,-15.
 8350694,12.55233758\H,0,7.77853924,-15.71438786,13.23453737\H,0,8.5805
 8445,-14.28465555,12.62984268\H,0,12.41297039,-15.98884884,16.82948695
 \H,0,14.86125385,-13.27289381,20.9139161\H,0,13.56148116,-13.05500914,
 22.06116668\H,0,14.2113675,-14.65058659,21.76988163\H,0,11.89595662,-1
 2.0365548,21.77041976\H,0,7.75946122,-8.6670133,22.29749861\H,0,6.3896
 7718,-9.51417747,21.61995065\H,0,7.0745692,-10.03573327,23.14046672\H,
 0,6.08570235,-10.42500433,19.84272835\H,0,5.34296267,-12.64039425,14.1
 9746306\H,0,3.96988101,-12.55953047,15.2750411\H,0,4.65642184,-11.0909
 9662,14.62301603\H,0,7.06308278,-13.58980275,14.42537504\H,0,11.343053
 78,-7.82816596,15.19073477\H,0,9.60319061,-7.97897834,15.24728941\H,0,
 10.47312219,-7.37224917,16.63587337\H,0,8.94264968,-9.77820921,17.6990
 0928\H,0,12.3504467,-10.10986987,15.28277703\H,0,11.98023491,-12.41373
 768,16.36198328\H,0,3.1810822,-12.60564889,18.03692009\H,0,2.0759628,-
 11.12804095,17.86346724\H,0,4.24852269,-9.59780029,18.01426513\H,0,10.
 57743644,-10.66659345,25.07110351\H,0,8.81094115,-10.53494366,24.52625
 24\H,0,11.13183644,-9.47852988,22.71065649\\Version=ES64L-G16RevA.03\S
 tate=6-A\HF=-3879.2601696\S2=8.760645\S2-1=0.\S2A=8.750035\RMSD=6.462e
 -10\Dipole=0.5520857,2.5807918,0.1532481\Quadrupole=3.0756606,1.978439
 9,-5.0541005,2.3438996,6.9238275,-4.1196696\PG=C01 [X(C41H46Fe1N6O4S1)
 ]\\@


 TO DETECT ERRORS, THE PROGRAMMER MUST HAVE A CONNIVING MIND,
 ONE THAT DELIGHTS IN UNCOVERING FLAWS WHERE BEAUTY AND
 PERFECTION WERE ONCE THOUGHT TO LIE.

             -- THE PSYCHOLOGY OF COMPUTER PROGRAMMING
                GERALD M. WEINBERG
 Job cpu time:       1 days 11 hours 12 minutes 31.8 seconds.
 Elapsed time:       0 days  8 hours 49 minutes 55.5 seconds.
 File lengths (MBytes):  RWF=   4287 Int=      0 D2E=      0 Chk=    291 Scr=      1
 Normal termination of Gaussian 16 at Mon Feb 20 11:11:36 2023.
