 Entering Gaussian System, Link 0=g16
 Input=/net/homes/chemie/zhartovska/work/BioModel/Konrad/3ccx/3ccx05/3ccx05.com
 Output=/net/homes/chemie/zhartovska/work/BioModel/Konrad/3ccx/3ccx05/3ccx05.log
 Initial command:
 /afs/math/software/gaussian/g16.A03/g16/l1.exe "/scratch/zhartovska_gaussian.nFO9YWj/Gau-30851.inp" -scrdir="/scratch/zhartovska_gaussian.nFO9YWj/"
 Entering Link 1 = /afs/math/software/gaussian/g16.A03/g16/l1.exe PID=     30852.
  
 Copyright (c) 1988,1990,1992,1993,1995,1998,2003,2009,2016,
            Gaussian, Inc.  All Rights Reserved.
  
 This is part of the Gaussian(R) 16 program.  It is based on
 the Gaussian(R) 09 system (copyright 2009, Gaussian, Inc.),
 the Gaussian(R) 03 system (copyright 2003, Gaussian, Inc.),
 the Gaussian(R) 98 system (copyright 1998, Gaussian, Inc.),
 the Gaussian(R) 94 system (copyright 1995, Gaussian, Inc.),
 the Gaussian 92(TM) system (copyright 1992, Gaussian, Inc.),
 the Gaussian 90(TM) system (copyright 1990, Gaussian, Inc.),
 the Gaussian 88(TM) system (copyright 1988, Gaussian, Inc.),
 the Gaussian 86(TM) system (copyright 1986, Carnegie Mellon
 University), and the Gaussian 82(TM) system (copyright 1983,
 Carnegie Mellon University). Gaussian is a federally registered
 trademark of Gaussian, Inc.
  
 This software contains proprietary and confidential information,
 including trade secrets, belonging to Gaussian, Inc.
  
 This software is provided under written license and may be
 used, copied, transmitted, or stored only in accord with that
 written license.
  
 The following legend is applicable only to US Government
 contracts under FAR:
  
                    RESTRICTED RIGHTS LEGEND
  
 Use, reproduction and disclosure by the US Government is
 subject to restrictions as set forth in subparagraphs (a)
 and (c) of the Commercial Computer Software - Restricted
 Rights clause in FAR 52.227-19.
  
 Gaussian, Inc.
 340 Quinnipiac St., Bldg. 40, Wallingford CT 06492
  
  
 ---------------------------------------------------------------
 Warning -- This program may not be used in any manner that
 competes with the business of Gaussian, Inc. or will provide
 assistance to any competitor of Gaussian, Inc.  The licensee
 of this program is prohibited from giving any competitor of
 Gaussian, Inc. access to this program.  By using this program,
 the user acknowledges that Gaussian, Inc. is engaged in the
 business of creating and licensing software in the field of
 computational chemistry and represents and warrants to the
 licensee that it is not a competitor of Gaussian, Inc. and that
 it will not use this program in any manner prohibited above.
 ---------------------------------------------------------------
  

 Cite this work as:
 Gaussian 16, Revision A.03,
 M. J. Frisch, G. W. Trucks, H. B. Schlegel, G. E. Scuseria, 
 M. A. Robb, J. R. Cheeseman, G. Scalmani, V. Barone, 
 G. A. Petersson, H. Nakatsuji, X. Li, M. Caricato, A. V. Marenich, 
 J. Bloino, B. G. Janesko, R. Gomperts, B. Mennucci, H. P. Hratchian, 
 J. V. Ortiz, A. F. Izmaylov, J. L. Sonnenberg, D. Williams-Young, 
 F. Ding, F. Lipparini, F. Egidi, J. Goings, B. Peng, A. Petrone, 
 T. Henderson, D. Ranasinghe, V. G. Zakrzewski, J. Gao, N. Rega, 
 G. Zheng, W. Liang, M. Hada, M. Ehara, K. Toyota, R. Fukuda, 
 J. Hasegawa, M. Ishida, T. Nakajima, Y. Honda, O. Kitao, H. Nakai, 
 T. Vreven, K. Throssell, J. A. Montgomery, Jr., J. E. Peralta, 
 F. Ogliaro, M. J. Bearpark, J. J. Heyd, E. N. Brothers, K. N. Kudin, 
 V. N. Staroverov, T. A. Keith, R. Kobayashi, J. Normand, 
 K. Raghavachari, A. P. Rendell, J. C. Burant, S. S. Iyengar, 
 J. Tomasi, M. Cossi, J. M. Millam, M. Klene, C. Adamo, R. Cammi, 
 J. W. Ochterski, R. L. Martin, K. Morokuma, O. Farkas, 
 J. B. Foresman, and D. J. Fox, Gaussian, Inc., Wallingford CT, 2016.
 
 ******************************************
 Gaussian 16:  ES64L-G16RevA.03 25-Dec-2016
                 5-Dec-2022 
 ******************************************
 %nprocs=12
 Will use up to   12 processors via shared memory.
 %mem=16GB
 %oldchk=3ccx_II_Qn.chk
 %chk=3ccx_II_Q.chk
 Copying data from "3ccx_II_Qn.chk" to current chk file "3ccx_II_Q.chk"
 IOpt=  2 FromEx=T IUOpen= 4 IOptOp= 5 NList=   0 IFRang= 0 IUIn= 4 IUOut= 2.
 ----------------------------------------------------------------------
 # PBE1PBE/def2TZVP empiricaldispersion=GD3BJ int=(grid=ultrafine) geom
 =check pop=nbo guess=read
 ----------------------------------------------------------------------
 1/29=2,38=1,172=1/1;
 2/12=2,40=1/2;
 3/5=44,7=101,11=2,14=-4,25=1,30=1,74=-13,75=-5,116=-2,124=41/1,2,3;
 4/5=1/1;
 5/5=2,38=6/2;
 6/7=2,8=2,9=2,10=2,28=1,40=1/1,7;
 99/5=1,9=1/99;
 ---------
 3ccx_II_Q
 ---------
 Structure from the checkpoint file:  "3ccx_II_Q.chk"
 Charge =  0 Multiplicity = 5
 Z-Matrix found in chk file.
 C,0,-9.051,54.887001,107.522003
 C,0,-8.537,55.679001,108.734001
 N,0,-9.216,56.466999,109.567001
 C,0,-7.233,55.686001,109.231003
 C,0,-8.422,56.925999,110.523003
 N,0,-7.202,56.446999,110.310997
 C,0,-5.175,54.015999,112.921997
 C,0,-7.355,58.067001,114.328003
 C,0,-5.763,60.249001,110.445999
 C,0,-3.389,56.311001,109.172997
 C,0,-5.913,54.938,113.696999
 C,0,-6.432,54.653999,114.942001
 C,0,-7.065,55.834,115.351997
 C,0,-6.878,56.744999,114.327003
 C,0,-7.919,56.063,116.589996
 C,0,-6.378,53.285999,115.634003
 C,0,-5.295,53.131001,116.700996
 C,0,-5.236,51.755001,117.363998
 O,0,-6.103,51.431999,118.169998
 O,0,-4.335,50.962002,117.095001
 C,0,-7.241,59.044998,113.338997
 C,0,-7.83,60.314999,113.374001
 C,0,-7.343,60.948002,112.234001
 C,0,-6.53,60.008999,111.592003
 C,0,-8.777,60.835999,114.448997
 C,0,-7.591,62.224998,111.716003
 C,0,-8.62395012,63.00850418,112.24803127
 C,0,-4.893,59.400002,109.751999
 C,0,-4.145,59.778,108.641998
 C,0,-3.387,58.643002,108.335999
 C,0,-3.807,57.651001,109.223999
 C,0,-4.117,61.174,108.005997
 C,0,-2.439,58.389,107.333
 C,0,-2.138,59.140999,106.144997
 C,0,-3.74,55.256001,110.013
 C,0,-3.412,53.926998,109.802002
 C,0,-3.932,53.261002,110.902
 C,0,-4.544,54.227001,111.691002
 C,0,-2.696,53.308998,108.598
 C,0,-3.889,51.762001,111.149002
 C,0,-2.827,51.373001,112.156998
 C,0,-2.818,49.919998,112.611
 O,0,-2.226,49.653,113.639999
 O,0,-3.394,49.046001,111.970001
 N,0,-6.201,56.203999,113.325996
 N,0,-6.559,58.835999,112.216003
 N,0,-4.685,58.126999,110.102997
 N,0,-4.489,55.428001,111.107002
 Fe,0,-5.725,57.066002,111.536003
 H,0,-5.85383253,51.08712844,119.0305675
 H,0,-4.34571158,53.32725306,116.2479655
 H,0,-5.46468176,53.86409466,117.46170737
 H,0,-7.32766103,53.10568316,116.09283862
 H,0,-6.21894107,52.53851195,114.88509488
 H,0,-1.2661152,49.64926482,113.65439422
 H,0,-1.87063044,51.5911488,111.72960028
 H,0,-2.95275919,51.98860667,113.02308938
 H,0,-3.68656552,51.26445913,110.2235981
 H,0,-4.84384551,51.44356132,111.51199816
 H,0,-5.08724941,53.03002294,113.32826174
 H,0,-7.39620599,56.70188146,117.27074331
 H,0,-8.84222836,56.52347257,116.30624538
 H,0,-8.11921717,55.1247106,117.0637323
 H,0,-7.87945056,58.36573186,115.2115252
 H,0,-8.31394209,61.64850079,114.96891836
 H,0,-9.68319379,61.17509938,113.99213405
 H,0,-8.99856794,60.05008922,115.14048342
 H,0,-5.85609383,61.23349732,110.03734201
 H,0,-3.23698524,61.27488705,107.40575053
 H,0,-4.98399694,61.30390451,107.39253052
 H,0,-4.11049109,61.9167556,108.77617344
 H,0,-2.70972745,56.0675726,108.38291382
 H,0,-6.39971318,55.16384721,108.8092347
 H,0,-10.18896909,56.68183674,109.48229032
 H,0,-8.71315632,57.57042227,111.32602644
 H,0,-8.34701784,54.12100603,107.2718814
 H,0,-9.99363297,54.44078289,107.76123609
 H,0,-9.1703254,55.54762428,106.68879334
 H,0,-1.75697181,52.90285931,108.91133278
 H,0,-3.30144194,52.52972648,108.18438671
 H,0,-2.52920688,54.06251652,107.85685906
 H,0,-6.99183618,62.60262785,110.91394414
 H,0,-8.4404193,64.02962623,112.50980634
 H,0,-9.59615887,62.58560386,112.3924801
 H,0,-1.19027831,59.02254456,105.66261526
 H,0,-2.86172672,59.81906633,105.74332011
 H,0,-1.85329176,57.50456169,107.47305258
 Recover connectivity data from disk.
 Stoichiometry    C38H38FeN6O4(5)
 Framework group  C1[X(C38H38FeN6O4)]
 Deg. of freedom   255
 Full point group                 C1      NOp   1
 Largest Abelian subgroup         C1      NOp   1
 Largest concise Abelian subgroup C1      NOp   1
                         Standard orientation:                         
 ---------------------------------------------------------------------
 Center     Atomic      Atomic             Coordinates (Angstroms)
 Number     Number       Type             X           Y           Z
 ---------------------------------------------------------------------
      1          6           0       -1.539573   -1.961020    5.107070
      2          6           0       -1.583767   -1.033946    3.882742
      3          7           0       -2.015085    0.224340    3.801803
      4          6           0       -1.125232   -1.329653    2.598305
      5          6           0       -1.834548    0.699400    2.578373
      6          7           0       -1.290794   -0.260400    1.839520
      7          6           0        2.386895   -0.003326    0.038318
      8          6           0       -0.900885    3.492459   -0.293123
      9          6           0       -4.279118    0.234487   -0.875102
     10          6           0       -0.993776   -3.224622   -0.802009
     11          6           0        1.801623    1.280879   -0.021938
     12          6           0        2.521232    2.456089    0.011107
     13          6           0        1.564116    3.473653   -0.087278
     14          6           0        0.337716    2.838532   -0.177076
     15          6           0        1.772330    4.976248    0.027847
     16          6           0        4.038218    2.561357    0.213295
     17          6           0        4.857104    2.785202   -1.057417
     18          6           0        6.368767    2.862431   -0.844485
     19          8           0        6.858836    3.862685   -0.329724
     20          8           0        7.101866    1.931585   -1.174787
     21          6           0       -2.182613    2.944829   -0.362994
     22          6           0       -3.380885    3.669331   -0.380061
     23          6           0       -4.362615    2.699900   -0.564101
     24          6           0       -3.688251    1.476113   -0.613463
     25          6           0       -3.518326    5.180543   -0.234419
     26          6           0       -5.756514    2.807752   -0.641291
     27          6           0       -6.385666    4.013999   -0.305051
     28          6           0       -3.696443   -1.033460   -0.985267
     29          6           0       -4.394625   -2.194723   -1.299111
     30          6           0       -3.406517   -3.182582   -1.363891
     31          6           0       -2.214505   -2.556931   -0.994190
     32          6           0       -5.895519   -2.290644   -1.602777
     33          6           0       -3.468745   -4.556478   -1.642756
     34          6           0       -4.610010   -5.429277   -1.699237
     35          6           0        0.243879   -2.692641   -0.445585
     36          6           0        1.365715   -3.435992   -0.118070
     37          6           0        2.351945   -2.490731    0.122302
     38          6           0        1.757737   -1.248929   -0.064958
     39          6           0        1.486711   -4.956252    0.017465
     40          6           0        3.778404   -2.771710    0.565166
     41          6           0        4.770476   -2.654294   -0.573794
     42          6           0        6.244914   -2.739384   -0.204730
     43          8           0        7.054360   -2.319188   -1.010225
     44          8           0        6.609267   -3.206198    0.870378
     45          7           0        0.476940    1.523026   -0.121546
     46          7           0       -2.387309    1.630569   -0.390212
     47          7           0       -2.389387   -1.251151   -0.808585
     48          7           0        0.455367   -1.377017   -0.336816
     49         26           0       -1.002351    0.113984   -0.120574
     50          1           0        7.596780    4.307700   -0.752809
     51          1           0        4.653260    1.982482   -1.734903
     52          1           0        4.533776    3.699557   -1.509428
     53          1           0        4.230752    3.373697    0.882574
     54          1           0        4.377521    1.657625    0.674859
     55          1           0        7.239579   -2.817886   -1.809346
     56          1           0        4.560521   -3.433840   -1.276024
     57          1           0        4.605536   -1.715339   -1.059652
     58          1           0        3.827472   -3.762553    0.966068
     59          1           0        4.046695   -2.074337    1.331058
     60          1           0        3.447053   -0.026595    0.181231
     61          1           0        1.621217    5.431577   -0.928574
     62          1           0        1.073175    5.380460    0.729770
     63          1           0        2.769042    5.173542    0.363318
     64          1           0       -0.854643    4.560693   -0.333608
     65          1           0       -3.904877    5.592739   -1.143029
     66          1           0       -4.187452    5.401882    0.570678
     67          1           0       -2.559121    5.607738   -0.028677
     68          1           0       -5.340053    0.258247   -1.012046
     69          1           0       -6.095973   -3.202092   -2.126209
     70          1           0       -6.446525   -2.277443   -0.685651
     71          1           0       -6.190758   -1.459291   -2.208240
     72          1           0       -1.017358   -4.284207   -0.949063
     73          1           0       -0.710074   -2.263590    2.281594
     74          1           0       -2.418656    0.738197    4.558825
     75          1           0       -2.083544    1.684832    2.243970
     76          1           0       -0.857409   -2.764276    4.921779
     77          1           0       -1.214078   -1.406821    5.962533
     78          1           0       -2.516451   -2.357627    5.289585
     79          1           0        2.154883   -5.328965   -0.730554
     80          1           0        1.866703   -5.198698    0.987890
     81          1           0        0.523105   -5.403533   -0.110224
     82          1           0       -6.341332    1.969174   -0.957005
     83          1           0       -7.122637    4.433125   -0.957820
     84          1           0       -6.129060    4.515874    0.604440
     85          1           0       -4.553297   -6.349683   -2.241950
     86          1           0       -5.516009   -5.158369   -1.198562
     87          1           0       -2.527300   -5.023874   -1.843063
 ---------------------------------------------------------------------
 Rotational constants (GHZ):           0.0756466           0.0455828           0.0336270
 Standard basis: def2TZVP (5D, 7F)
 There are  2008 symmetry adapted cartesian basis functions of A   symmetry.
 There are  1761 symmetry adapted basis functions of A   symmetry.
  1761 basis functions,  2854 primitive gaussians,  2008 cartesian basis functions
   185 alpha electrons      181 beta electrons
       nuclear repulsion energy      7123.0593588975 Hartrees.
 NAtoms=   87 NActive=   87 NUniq=   87 SFac= 1.00D+00 NAtFMM=   60 NAOKFM=T Big=T
 Integral buffers will be    131072 words long.
 Raffenetti 2 integral format.
 Two-electron integral symmetry is turned on.
 Nuclear repulsion after empirical dispersion term =     7122.9390079520 Hartrees.
 One-electron integrals computed using PRISM.
   1 Symmetry operations used in ECPInt.
 ECPInt:  NShTT=  241860 NPrTT=  750929 LenC2=  173583 LenP2D=  349118.
 LDataN:  DoStor=T MaxTD1= 6 Len=  172
 NBasis=  1761 RedAO= T EigKep=  2.59D-06  NBF=  1761
 NBsUse=  1761 1.00D-06 EigRej= -1.00D+00 NBFU=  1761
 Initial guess from the checkpoint file:  "3ccx_II_Q.chk"
 B after Tr=     0.000000    0.000000   -0.000000
         Rot=    1.000000   -0.000000   -0.000000    0.000000 Ang=   0.00 deg.
 Initial guess <Sx>= 0.0000 <Sy>= 0.0000 <Sz>= 2.0000 <S**2>= 6.0424 S= 2.0085
 Requested convergence on RMS density matrix=1.00D-08 within 128 cycles.
 Requested convergence on MAX density matrix=1.00D-06.
 Requested convergence on             energy=1.00D-06.
 No special actions if energy rises.
 SCF Done:  E(UPBE1PBE) =  -3362.26137683     A.U. after    1 cycles
            NFock=  1  Conv=0.99D-09     -V/T= 2.0026
 <Sx>= 0.0000 <Sy>= 0.0000 <Sz>= 2.0000 <S**2>= 6.0424 S= 2.0085
 <L.S>= 0.000000000000E+00
 Annihilation of the first spin contaminant:
 S**2 before annihilation     6.0424,   after     6.0004

 **********************************************************************

            Population analysis using the SCF density.

 **********************************************************************

 Orbital symmetries:
 Alpha Orbitals:
       Occupied  (A) (A) (A) (A) (A) (A) (A) (A) (A) (A) (A) (A)
                 (A) (A) (A) (A) (A) (A) (A) (A) (A) (A) (A) (A)
                 (A) (A) (A) (A) (A) (A) (A) (A) (A) (A) (A) (A)
                 (A) (A) (A) (A) (A) (A) (A) (A) (A) (A) (A) (A)
                 (A) (A) (A) (A) (A) (A) (A) (A) (A) (A) (A) (A)
                 (A) (A) (A) (A) (A) (A) (A) (A) (A) (A) (A) (A)
                 (A) (A) (A) (A) (A) (A) (A) (A) (A) (A) (A) (A)
                 (A) (A) (A) (A) (A) (A) (A) (A) (A) (A) (A) (A)
                 (A) (A) (A) (A) (A) (A) (A) (A) (A) (A) (A) (A)
                 (A) (A) (A) (A) (A) (A) (A) (A) (A) (A) (A) (A)
                 (A) (A) (A) (A) (A) (A) (A) (A) (A) (A) (A) (A)
                 (A) (A) (A) (A) (A) (A) (A) (A) (A) (A) (A) (A)
                 (A) (A) (A) (A) (A) (A) (A) (A) (A) (A) (A) (A)
                 (A) (A) (A) (A) (A) (A) (A) (A) (A) (A) (A) (A)
                 (A) (A) (A) (A) (A) (A) (A) (A) (A) (A) (A) (A)
                 (A) (A) (A) (A) (A)
       Virtual   (A) (A) (A) (A) (A) (A) (A) (A) (A) (A) (A) (A)
                 (A) (A) (A) (A) (A) (A) (A) (A) (A) (A) (A) (A)
                 (A) (A) (A) (A) (A) (A) (A) (A) (A) (A) (A) (A)
                 (A) (A) (A) (A) (A) (A) (A) (A) (A) (A) (A) (A)
                 (A) (A) (A) (A) (A) (A) (A) (A) (A) (A) (A) (A)
                 (A) (A) (A) (A) (A) (A) (A) (A) (A) (A) (A) (A)
                 (A) (A) (A) (A) (A) (A) (A) (A) (A) (A) (A) (A)
                 (A) (A) (A) (A) (A) (A) (A) (A) (A) (A) (A) (A)
                 (A) (A) (A) (A) (A) (A) (A) (A) (A) (A) (A) (A)
                 (A) (A) (A) (A) (A) (A) (A) (A) (A) (A) (A) (A)
                 (A) (A) (A) (A) (A) (A) (A) (A) (A) (A) (A) (A)
                 (A) (A) (A) (A) (A) (A) (A) (A) (A) (A) (A) (A)
                 (A) (A) (A) (A) (A) (A) (A) (A) (A) (A) (A) (A)
                 (A) (A) (A) (A) (A) (A) (A) (A) (A) (A) (A) (A)
                 (A) (A) (A) (A) (A) (A) (A) (A) (A) (A) (A) (A)
                 (A) (A) (A) (A) (A) (A) (A) (A) (A) (A) (A) (A)
                 (A) (A) (A) (A) (A) (A) (A) (A) (A) (A) (A) (A)
                 (A) (A) (A) (A) (A) (A) (A) (A) (A) (A) (A) (A)
                 (A) (A) (A) (A) (A) (A) (A) (A) (A) (A) (A) (A)
                 (A) (A) (A) (A) (A) (A) (A) (A) (A) (A) (A) (A)
                 (A) (A) (A) (A) (A) (A) (A) (A) (A) (A) (A) (A)
                 (A) (A) (A) (A) (A) (A) (A) (A) (A) (A) (A) (A)
                 (A) (A) (A) (A) (A) (A) (A) (A) (A) (A) (A) (A)
                 (A) (A) (A) (A) (A) (A) (A) (A) (A) (A) (A) (A)
                 (A) (A) (A) (A) (A) (A) (A) (A) (A) (A) (A) (A)
                 (A) (A) (A) (A) (A) (A) (A) (A) (A) (A) (A) (A)
                 (A) (A) (A) (A) (A) (A) (A) (A) (A) (A) (A) (A)
                 (A) (A) (A) (A) (A) (A) (A) (A) (A) (A) (A) (A)
                 (A) (A) (A) (A) (A) (A) (A) (A) (A) (A) (A) (A)
                 (A) (A) (A) (A) (A) (A) (A) (A) (A) (A) (A) (A)
                 (A) (A) (A) (A) (A) (A) (A) (A) (A) (A) (A) (A)
                 (A) (A) (A) (A) (A) (A) (A) (A) (A) (A) (A) (A)
                 (A) (A) (A) (A) (A) (A) (A) (A) (A) (A) (A) (A)
                 (A) (A) (A) (A) (A) (A) (A) (A) (A) (A) (A) (A)
                 (A) (A) (A) (A) (A) (A) (A) (A) (A) (A) (A) (A)
                 (A) (A) (A) (A) (A) (A) (A) (A) (A) (A) (A) (A)
                 (A) (A) (A) (A) (A) (A) (A) (A) (A) (A) (A) (A)
                 (A) (A) (A) (A) (A) (A) (A) (A) (A) (A) (A) (A)
                 (A) (A) (A) (A) (A) (A) (A) (A) (A) (A) (A) (A)
                 (A) (A) (A) (A) (A) (A) (A) (A) (A) (A) (A) (A)
                 (A) (A) (A) (A) (A) (A) (A) (A) (A) (A) (A) (A)
                 (A) (A) (A) (A) (A) (A) (A) (A) (A) (A) (A) (A)
                 (A) (A) (A) (A) (A) (A) (A) (A) (A) (A) (A) (A)
                 (A) (A) (A) (A) (A) (A) (A) (A) (A) (A) (A) (A)
                 (A) (A) (A) (A) (A) (A) (A) (A) (A) (A) (A) (A)
                 (A) (A) (A) (A) (A) (A) (A) (A) (A) (A) (A) (A)
                 (A) (A) (A) (A) (A) (A) (A) (A) (A) (A) (A) (A)
                 (A) (A) (A) (A) (A) (A) (A) (A) (A) (A) (A) (A)
                 (A) (A) (A) (A) (A) (A) (A) (A) (A) (A) (A) (A)
                 (A) (A) (A) (A) (A) (A) (A) (A) (A) (A) (A) (A)
                 (A) (A) (A) (A) (A) (A) (A) (A) (A) (A) (A) (A)
                 (A) (A) (A) (A) (A) (A) (A) (A) (A) (A) (A) (A)
                 (A) (A) (A) (A) (A) (A) (A) (A) (A) (A) (A) (A)
                 (A) (A) (A) (A) (A) (A) (A) (A) (A) (A) (A) (A)
                 (A) (A) (A) (A) (A) (A) (A) (A) (A) (A) (A) (A)
                 (A) (A) (A) (A) (A) (A) (A) (A) (A) (A) (A) (A)
                 (A) (A) (A) (A) (A) (A) (A) (A) (A) (A) (A) (A)
                 (A) (A) (A) (A) (A) (A) (A) (A) (A) (A) (A) (A)
                 (A) (A) (A) (A) (A) (A) (A) (A) (A) (A) (A) (A)
                 (A) (A) (A) (A) (A) (A) (A) (A) (A) (A) (A) (A)
                 (A) (A) (A) (A) (A) (A) (A) (A) (A) (A) (A) (A)
                 (A) (A) (A) (A) (A) (A) (A) (A) (A) (A) (A) (A)
                 (A) (A) (A) (A) (A) (A) (A) (A) (A) (A) (A) (A)
                 (A) (A) (A) (A) (A) (A) (A) (A) (A) (A) (A) (A)
                 (A) (A) (A) (A) (A) (A) (A) (A) (A) (A) (A) (A)
                 (A) (A) (A) (A) (A) (A) (A) (A) (A) (A) (A) (A)
                 (A) (A) (A) (A) (A) (A) (A) (A) (A) (A) (A) (A)
                 (A) (A) (A) (A) (A) (A) (A) (A) (A) (A) (A) (A)
                 (A) (A) (A) (A) (A) (A) (A) (A) (A) (A) (A) (A)
                 (A) (A) (A) (A) (A) (A) (A) (A) (A) (A) (A) (A)
                 (A) (A) (A) (A) (A) (A) (A) (A) (A) (A) (A) (A)
                 (A) (A) (A) (A) (A) (A) (A) (A) (A) (A) (A) (A)
                 (A) (A) (A) (A) (A) (A) (A) (A) (A) (A) (A) (A)
                 (A) (A) (A) (A) (A) (A) (A) (A) (A) (A) (A) (A)
                 (A) (A) (A) (A) (A) (A) (A) (A) (A) (A) (A) (A)
                 (A) (A) (A) (A) (A) (A) (A) (A) (A) (A) (A) (A)
                 (A) (A) (A) (A) (A) (A) (A) (A) (A) (A) (A) (A)
                 (A) (A) (A) (A) (A) (A) (A) (A) (A) (A) (A) (A)
                 (A) (A) (A) (A) (A) (A) (A) (A) (A) (A) (A) (A)
                 (A) (A) (A) (A) (A) (A) (A) (A) (A) (A) (A) (A)
                 (A) (A) (A) (A) (A) (A) (A) (A) (A) (A) (A) (A)
                 (A) (A) (A) (A) (A) (A) (A) (A) (A) (A) (A) (A)
                 (A) (A) (A) (A) (A) (A) (A) (A) (A) (A) (A) (A)
                 (A) (A) (A) (A) (A) (A) (A) (A) (A) (A) (A) (A)
                 (A) (A) (A) (A) (A) (A) (A) (A) (A) (A) (A) (A)
                 (A) (A) (A) (A) (A) (A) (A) (A) (A) (A) (A) (A)
                 (A) (A) (A) (A) (A) (A) (A) (A) (A) (A) (A) (A)
                 (A) (A) (A) (A) (A) (A) (A) (A) (A) (A) (A) (A)
                 (A) (A) (A) (A) (A) (A) (A) (A) (A) (A) (A) (A)
                 (A) (A) (A) (A) (A) (A) (A) (A) (A) (A) (A) (A)
                 (A) (A) (A) (A) (A) (A) (A) (A) (A) (A) (A) (A)
                 (A) (A) (A) (A) (A) (A) (A) (A) (A) (A) (A) (A)
                 (A) (A) (A) (A) (A) (A) (A) (A) (A) (A) (A) (A)
                 (A) (A) (A) (A) (A) (A) (A) (A) (A) (A) (A) (A)
                 (A) (A) (A) (A) (A) (A) (A) (A) (A) (A) (A) (A)
                 (A) (A) (A) (A) (A) (A) (A) (A) (A) (A) (A) (A)
                 (A) (A) (A) (A) (A) (A) (A) (A) (A) (A) (A) (A)
                 (A) (A) (A) (A) (A) (A) (A) (A) (A) (A) (A) (A)
                 (A) (A) (A) (A) (A) (A) (A) (A) (A) (A) (A) (A)
                 (A) (A) (A) (A) (A) (A) (A) (A) (A) (A) (A) (A)
                 (A) (A) (A) (A) (A) (A) (A) (A) (A) (A) (A) (A)
                 (A) (A) (A) (A) (A) (A) (A) (A) (A) (A) (A) (A)
                 (A) (A) (A) (A) (A) (A) (A) (A) (A) (A) (A) (A)
                 (A) (A) (A) (A) (A) (A) (A) (A) (A) (A) (A) (A)
                 (A) (A) (A) (A) (A) (A) (A) (A) (A) (A) (A) (A)
                 (A) (A) (A) (A) (A) (A) (A) (A) (A) (A) (A) (A)
                 (A) (A) (A) (A) (A) (A) (A) (A) (A) (A) (A) (A)
                 (A) (A) (A) (A) (A) (A) (A) (A) (A) (A) (A) (A)
                 (A) (A) (A) (A) (A) (A) (A) (A) (A) (A) (A) (A)
                 (A) (A) (A) (A) (A) (A) (A) (A) (A) (A) (A) (A)
                 (A) (A) (A) (A) (A) (A) (A) (A) (A) (A) (A) (A)
                 (A) (A) (A) (A) (A) (A) (A) (A) (A) (A) (A) (A)
                 (A) (A) (A) (A) (A) (A) (A) (A) (A) (A) (A) (A)
                 (A) (A) (A) (A) (A) (A) (A) (A) (A) (A) (A) (A)
                 (A) (A) (A) (A) (A) (A) (A) (A) (A) (A) (A) (A)
                 (A) (A) (A) (A) (A) (A) (A) (A) (A) (A) (A) (A)
                 (A) (A) (A) (A) (A) (A) (A) (A) (A) (A) (A) (A)
                 (A) (A) (A) (A) (A) (A) (A) (A) (A) (A) (A) (A)
                 (A) (A) (A) (A) (A) (A) (A) (A) (A) (A) (A) (A)
                 (A) (A) (A) (A) (A) (A) (A) (A) (A) (A) (A) (A)
                 (A) (A) (A) (A) (A) (A) (A) (A) (A) (A) (A) (A)
                 (A) (A) (A) (A) (A) (A) (A) (A) (A) (A) (A) (A)
                 (A) (A) (A) (A) (A) (A) (A) (A) (A) (A) (A) (A)
                 (A) (A) (A) (A) (A) (A) (A) (A) (A) (A) (A) (A)
                 (A) (A) (A) (A) (A) (A) (A) (A) (A) (A) (A) (A)
                 (A) (A) (A) (A) (A) (A) (A) (A) (A) (A) (A) (A)
                 (A) (A) (A) (A) (A) (A) (A) (A) (A) (A) (A) (A)
                 (A) (A) (A) (A) (A) (A) (A) (A) (A) (A) (A) (A)
                 (A) (A) (A) (A) (A) (A) (A) (A) (A) (A) (A) (A)
                 (A) (A) (A) (A) (A) (A) (A) (A) (A) (A) (A) (A)
                 (A) (A) (A) (A) (A) (A) (A) (A) (A) (A) (A) (A)
                 (A) (A) (A) (A)
 Beta  Orbitals:
       Occupied  (A) (A) (A) (A) (A) (A) (A) (A) (A) (A) (A) (A)
                 (A) (A) (A) (A) (A) (A) (A) (A) (A) (A) (A) (A)
                 (A) (A) (A) (A) (A) (A) (A) (A) (A) (A) (A) (A)
                 (A) (A) (A) (A) (A) (A) (A) (A) (A) (A) (A) (A)
                 (A) (A) (A) (A) (A) (A) (A) (A) (A) (A) (A) (A)
                 (A) (A) (A) (A) (A) (A) (A) (A) (A) (A) (A) (A)
                 (A) (A) (A) (A) (A) (A) (A) (A) (A) (A) (A) (A)
                 (A) (A) (A) (A) (A) (A) (A) (A) (A) (A) (A) (A)
                 (A) (A) (A) (A) (A) (A) (A) (A) (A) (A) (A) (A)
                 (A) (A) (A) (A) (A) (A) (A) (A) (A) (A) (A) (A)
                 (A) (A) (A) (A) (A) (A) (A) (A) (A) (A) (A) (A)
                 (A) (A) (A) (A) (A) (A) (A) (A) (A) (A) (A) (A)
                 (A) (A) (A) (A) (A) (A) (A) (A) (A) (A) (A) (A)
                 (A) (A) (A) (A) (A) (A) (A) (A) (A) (A) (A) (A)
                 (A) (A) (A) (A) (A) (A) (A) (A) (A) (A) (A) (A)
                 (A)
       Virtual   (A) (A) (A) (A) (A) (A) (A) (A) (A) (A) (A) (A)
                 (A) (A) (A) (A) (A) (A) (A) (A) (A) (A) (A) (A)
                 (A) (A) (A) (A) (A) (A) (A) (A) (A) (A) (A) (A)
                 (A) (A) (A) (A) (A) (A) (A) (A) (A) (A) (A) (A)
                 (A) (A) (A) (A) (A) (A) (A) (A) (A) (A) (A) (A)
                 (A) (A) (A) (A) (A) (A) (A) (A) (A) (A) (A) (A)
                 (A) (A) (A) (A) (A) (A) (A) (A) (A) (A) (A) (A)
                 (A) (A) (A) (A) (A) (A) (A) (A) (A) (A) (A) (A)
                 (A) (A) (A) (A) (A) (A) (A) (A) (A) (A) (A) (A)
                 (A) (A) (A) (A) (A) (A) (A) (A) (A) (A) (A) (A)
                 (A) (A) (A) (A) (A) (A) (A) (A) (A) (A) (A) (A)
                 (A) (A) (A) (A) (A) (A) (A) (A) (A) (A) (A) (A)
                 (A) (A) (A) (A) (A) (A) (A) (A) (A) (A) (A) (A)
                 (A) (A) (A) (A) (A) (A) (A) (A) (A) (A) (A) (A)
                 (A) (A) (A) (A) (A) (A) (A) (A) (A) (A) (A) (A)
                 (A) (A) (A) (A) (A) (A) (A) (A) (A) (A) (A) (A)
                 (A) (A) (A) (A) (A) (A) (A) (A) (A) (A) (A) (A)
                 (A) (A) (A) (A) (A) (A) (A) (A) (A) (A) (A) (A)
                 (A) (A) (A) (A) (A) (A) (A) (A) (A) (A) (A) (A)
                 (A) (A) (A) (A) (A) (A) (A) (A) (A) (A) (A) (A)
                 (A) (A) (A) (A) (A) (A) (A) (A) (A) (A) (A) (A)
                 (A) (A) (A) (A) (A) (A) (A) (A) (A) (A) (A) (A)
                 (A) (A) (A) (A) (A) (A) (A) (A) (A) (A) (A) (A)
                 (A) (A) (A) (A) (A) (A) (A) (A) (A) (A) (A) (A)
                 (A) (A) (A) (A) (A) (A) (A) (A) (A) (A) (A) (A)
                 (A) (A) (A) (A) (A) (A) (A) (A) (A) (A) (A) (A)
                 (A) (A) (A) (A) (A) (A) (A) (A) (A) (A) (A) (A)
                 (A) (A) (A) (A) (A) (A) (A) (A) (A) (A) (A) (A)
                 (A) (A) (A) (A) (A) (A) (A) (A) (A) (A) (A) (A)
                 (A) (A) (A) (A) (A) (A) (A) (A) (A) (A) (A) (A)
                 (A) (A) (A) (A) (A) (A) (A) (A) (A) (A) (A) (A)
                 (A) (A) (A) (A) (A) (A) (A) (A) (A) (A) (A) (A)
                 (A) (A) (A) (A) (A) (A) (A) (A) (A) (A) (A) (A)
                 (A) (A) (A) (A) (A) (A) (A) (A) (A) (A) (A) (A)
                 (A) (A) (A) (A) (A) (A) (A) (A) (A) (A) (A) (A)
                 (A) (A) (A) (A) (A) (A) (A) (A) (A) (A) (A) (A)
                 (A) (A) (A) (A) (A) (A) (A) (A) (A) (A) (A) (A)
                 (A) (A) (A) (A) (A) (A) (A) (A) (A) (A) (A) (A)
                 (A) (A) (A) (A) (A) (A) (A) (A) (A) (A) (A) (A)
                 (A) (A) (A) (A) (A) (A) (A) (A) (A) (A) (A) (A)
                 (A) (A) (A) (A) (A) (A) (A) (A) (A) (A) (A) (A)
                 (A) (A) (A) (A) (A) (A) (A) (A) (A) (A) (A) (A)
                 (A) (A) (A) (A) (A) (A) (A) (A) (A) (A) (A) (A)
                 (A) (A) (A) (A) (A) (A) (A) (A) (A) (A) (A) (A)
                 (A) (A) (A) (A) (A) (A) (A) (A) (A) (A) (A) (A)
                 (A) (A) (A) (A) (A) (A) (A) (A) (A) (A) (A) (A)
                 (A) (A) (A) (A) (A) (A) (A) (A) (A) (A) (A) (A)
                 (A) (A) (A) (A) (A) (A) (A) (A) (A) (A) (A) (A)
                 (A) (A) (A) (A) (A) (A) (A) (A) (A) (A) (A) (A)
                 (A) (A) (A) (A) (A) (A) (A) (A) (A) (A) (A) (A)
                 (A) (A) (A) (A) (A) (A) (A) (A) (A) (A) (A) (A)
                 (A) (A) (A) (A) (A) (A) (A) (A) (A) (A) (A) (A)
                 (A) (A) (A) (A) (A) (A) (A) (A) (A) (A) (A) (A)
                 (A) (A) (A) (A) (A) (A) (A) (A) (A) (A) (A) (A)
                 (A) (A) (A) (A) (A) (A) (A) (A) (A) (A) (A) (A)
                 (A) (A) (A) (A) (A) (A) (A) (A) (A) (A) (A) (A)
                 (A) (A) (A) (A) (A) (A) (A) (A) (A) (A) (A) (A)
                 (A) (A) (A) (A) (A) (A) (A) (A) (A) (A) (A) (A)
                 (A) (A) (A) (A) (A) (A) (A) (A) (A) (A) (A) (A)
                 (A) (A) (A) (A) (A) (A) (A) (A) (A) (A) (A) (A)
                 (A) (A) (A) (A) (A) (A) (A) (A) (A) (A) (A) (A)
                 (A) (A) (A) (A) (A) (A) (A) (A) (A) (A) (A) (A)
                 (A) (A) (A) (A) (A) (A) (A) (A) (A) (A) (A) (A)
                 (A) (A) (A) (A) (A) (A) (A) (A) (A) (A) (A) (A)
                 (A) (A) (A) (A) (A) (A) (A) (A) (A) (A) (A) (A)
                 (A) (A) (A) (A) (A) (A) (A) (A) (A) (A) (A) (A)
                 (A) (A) (A) (A) (A) (A) (A) (A) (A) (A) (A) (A)
                 (A) (A) (A) (A) (A) (A) (A) (A) (A) (A) (A) (A)
                 (A) (A) (A) (A) (A) (A) (A) (A) (A) (A) (A) (A)
                 (A) (A) (A) (A) (A) (A) (A) (A) (A) (A) (A) (A)
                 (A) (A) (A) (A) (A) (A) (A) (A) (A) (A) (A) (A)
                 (A) (A) (A) (A) (A) (A) (A) (A) (A) (A) (A) (A)
                 (A) (A) (A) (A) (A) (A) (A) (A) (A) (A) (A) (A)
                 (A) (A) (A) (A) (A) (A) (A) (A) (A) (A) (A) (A)
                 (A) (A) (A) (A) (A) (A) (A) (A) (A) (A) (A) (A)
                 (A) (A) (A) (A) (A) (A) (A) (A) (A) (A) (A) (A)
                 (A) (A) (A) (A) (A) (A) (A) (A) (A) (A) (A) (A)
                 (A) (A) (A) (A) (A) (A) (A) (A) (A) (A) (A) (A)
                 (A) (A) (A) (A) (A) (A) (A) (A) (A) (A) (A) (A)
                 (A) (A) (A) (A) (A) (A) (A) (A) (A) (A) (A) (A)
                 (A) (A) (A) (A) (A) (A) (A) (A) (A) (A) (A) (A)
                 (A) (A) (A) (A) (A) (A) (A) (A) (A) (A) (A) (A)
                 (A) (A) (A) (A) (A) (A) (A) (A) (A) (A) (A) (A)
                 (A) (A) (A) (A) (A) (A) (A) (A) (A) (A) (A) (A)
                 (A) (A) (A) (A) (A) (A) (A) (A) (A) (A) (A) (A)
                 (A) (A) (A) (A) (A) (A) (A) (A) (A) (A) (A) (A)
                 (A) (A) (A) (A) (A) (A) (A) (A) (A) (A) (A) (A)
                 (A) (A) (A) (A) (A) (A) (A) (A) (A) (A) (A) (A)
                 (A) (A) (A) (A) (A) (A) (A) (A) (A) (A) (A) (A)
                 (A) (A) (A) (A) (A) (A) (A) (A) (A) (A) (A) (A)
                 (A) (A) (A) (A) (A) (A) (A) (A) (A) (A) (A) (A)
                 (A) (A) (A) (A) (A) (A) (A) (A) (A) (A) (A) (A)
                 (A) (A) (A) (A) (A) (A) (A) (A) (A) (A) (A) (A)
                 (A) (A) (A) (A) (A) (A) (A) (A) (A) (A) (A) (A)
                 (A) (A) (A) (A) (A) (A) (A) (A) (A) (A) (A) (A)
                 (A) (A) (A) (A) (A) (A) (A) (A) (A) (A) (A) (A)
                 (A) (A) (A) (A) (A) (A) (A) (A) (A) (A) (A) (A)
                 (A) (A) (A) (A) (A) (A) (A) (A) (A) (A) (A) (A)
                 (A) (A) (A) (A) (A) (A) (A) (A) (A) (A) (A) (A)
                 (A) (A) (A) (A) (A) (A) (A) (A) (A) (A) (A) (A)
                 (A) (A) (A) (A) (A) (A) (A) (A) (A) (A) (A) (A)
                 (A) (A) (A) (A) (A) (A) (A) (A) (A) (A) (A) (A)
                 (A) (A) (A) (A) (A) (A) (A) (A) (A) (A) (A) (A)
                 (A) (A) (A) (A) (A) (A) (A) (A) (A) (A) (A) (A)
                 (A) (A) (A) (A) (A) (A) (A) (A) (A) (A) (A) (A)
                 (A) (A) (A) (A) (A) (A) (A) (A) (A) (A) (A) (A)
                 (A) (A) (A) (A) (A) (A) (A) (A) (A) (A) (A) (A)
                 (A) (A) (A) (A) (A) (A) (A) (A) (A) (A) (A) (A)
                 (A) (A) (A) (A) (A) (A) (A) (A) (A) (A) (A) (A)
                 (A) (A) (A) (A) (A) (A) (A) (A) (A) (A) (A) (A)
                 (A) (A) (A) (A) (A) (A) (A) (A) (A) (A) (A) (A)
                 (A) (A) (A) (A) (A) (A) (A) (A) (A) (A) (A) (A)
                 (A) (A) (A) (A) (A) (A) (A) (A) (A) (A) (A) (A)
                 (A) (A) (A) (A) (A) (A) (A) (A) (A) (A) (A) (A)
                 (A) (A) (A) (A) (A) (A) (A) (A) (A) (A) (A) (A)
                 (A) (A) (A) (A) (A) (A) (A) (A) (A) (A) (A) (A)
                 (A) (A) (A) (A) (A) (A) (A) (A) (A) (A) (A) (A)
                 (A) (A) (A) (A) (A) (A) (A) (A) (A) (A) (A) (A)
                 (A) (A) (A) (A) (A) (A) (A) (A) (A) (A) (A) (A)
                 (A) (A) (A) (A) (A) (A) (A) (A) (A) (A) (A) (A)
                 (A) (A) (A) (A) (A) (A) (A) (A) (A) (A) (A) (A)
                 (A) (A) (A) (A) (A) (A) (A) (A) (A) (A) (A) (A)
                 (A) (A) (A) (A) (A) (A) (A) (A) (A) (A) (A) (A)
                 (A) (A) (A) (A) (A) (A) (A) (A) (A) (A) (A) (A)
                 (A) (A) (A) (A) (A) (A) (A) (A) (A) (A) (A) (A)
                 (A) (A) (A) (A) (A) (A) (A) (A) (A) (A) (A) (A)
                 (A) (A) (A) (A) (A) (A) (A) (A) (A) (A) (A) (A)
                 (A) (A) (A) (A) (A) (A) (A) (A) (A) (A) (A) (A)
                 (A) (A) (A) (A) (A) (A) (A) (A) (A) (A) (A) (A)
                 (A) (A) (A) (A) (A) (A) (A) (A) (A) (A) (A) (A)
                 (A) (A) (A) (A) (A) (A) (A) (A) (A) (A) (A) (A)
                 (A) (A) (A) (A) (A) (A) (A) (A)
 The electronic state is 5-A.
 Alpha  occ. eigenvalues -- -256.31433 -30.11929 -25.95588 -25.93801 -25.92163
 Alpha  occ. eigenvalues --  -19.25629 -19.24467 -19.17128 -19.16964 -14.46818
 Alpha  occ. eigenvalues --  -14.40134 -14.35818 -14.35526 -14.35298 -14.34898
 Alpha  occ. eigenvalues --  -10.34494 -10.33811 -10.29219 -10.27640 -10.24733
 Alpha  occ. eigenvalues --  -10.24417 -10.24056 -10.24002 -10.23835 -10.23743
 Alpha  occ. eigenvalues --  -10.23736 -10.23545 -10.23442 -10.23393 -10.23083
 Alpha  occ. eigenvalues --  -10.22998 -10.22995 -10.22862 -10.22855 -10.22407
 Alpha  occ. eigenvalues --  -10.22208 -10.22124 -10.21995 -10.21959 -10.21955
 Alpha  occ. eigenvalues --  -10.21823 -10.21818 -10.21790 -10.21678 -10.21572
 Alpha  occ. eigenvalues --  -10.21556 -10.21437 -10.21422 -10.21400 -10.21366
 Alpha  occ. eigenvalues --  -10.21363 -10.21356 -10.21097  -3.54756  -2.34582
 Alpha  occ. eigenvalues --   -2.30974  -2.27549  -1.18001  -1.17464  -1.09274
 Alpha  occ. eigenvalues --   -1.02658  -1.02620  -1.00160  -0.99273  -0.99000
 Alpha  occ. eigenvalues --   -0.98287  -0.94014  -0.84122  -0.83470  -0.83305
 Alpha  occ. eigenvalues --   -0.83131  -0.82376  -0.82001  -0.81357  -0.81103
 Alpha  occ. eigenvalues --   -0.79339  -0.78634  -0.77187  -0.75886  -0.75029
 Alpha  occ. eigenvalues --   -0.74037  -0.73981  -0.72746  -0.72134  -0.71569
 Alpha  occ. eigenvalues --   -0.70212  -0.69885  -0.69605  -0.67233  -0.66743
 Alpha  occ. eigenvalues --   -0.66539  -0.65522  -0.65174  -0.64209  -0.62678
 Alpha  occ. eigenvalues --   -0.61862  -0.58980  -0.58311  -0.58211  -0.56688
 Alpha  occ. eigenvalues --   -0.55394  -0.54821  -0.53886  -0.53017  -0.52694
 Alpha  occ. eigenvalues --   -0.52493  -0.52194  -0.51560  -0.51012  -0.50827
 Alpha  occ. eigenvalues --   -0.50120  -0.49914  -0.49488  -0.49361  -0.48678
 Alpha  occ. eigenvalues --   -0.48588  -0.47000  -0.46563  -0.46338  -0.46103
 Alpha  occ. eigenvalues --   -0.46026  -0.45156  -0.45102  -0.44784  -0.44593
 Alpha  occ. eigenvalues --   -0.44479  -0.44409  -0.44349  -0.44059  -0.44001
 Alpha  occ. eigenvalues --   -0.43755  -0.43374  -0.42903  -0.42623  -0.42274
 Alpha  occ. eigenvalues --   -0.42018  -0.41927  -0.41615  -0.41477  -0.40962
 Alpha  occ. eigenvalues --   -0.40539  -0.40186  -0.40013  -0.39470  -0.39053
 Alpha  occ. eigenvalues --   -0.38918  -0.38778  -0.38606  -0.38470  -0.38211
 Alpha  occ. eigenvalues --   -0.37868  -0.37782  -0.37551  -0.36841  -0.36742
 Alpha  occ. eigenvalues --   -0.36421  -0.36150  -0.35618  -0.35372  -0.34952
 Alpha  occ. eigenvalues --   -0.34422  -0.33958  -0.33560  -0.32859  -0.32779
 Alpha  occ. eigenvalues --   -0.32607  -0.32323  -0.30591  -0.30375  -0.29837
 Alpha  occ. eigenvalues --   -0.29443  -0.27533  -0.27412  -0.27220  -0.26965
 Alpha  occ. eigenvalues --   -0.26554  -0.25560  -0.24764  -0.22875  -0.22642
 Alpha  occ. eigenvalues --   -0.21392  -0.20654  -0.19005  -0.18377  -0.17727
 Alpha virt. eigenvalues --   -0.08164  -0.08147  -0.04571  -0.02176  -0.00361
 Alpha virt. eigenvalues --   -0.00089   0.00663   0.00982   0.01717   0.03465
 Alpha virt. eigenvalues --    0.03931   0.04055   0.04224   0.04503   0.05312
 Alpha virt. eigenvalues --    0.05497   0.05823   0.06279   0.06580   0.06880
 Alpha virt. eigenvalues --    0.07610   0.07892   0.08218   0.08493   0.08626
 Alpha virt. eigenvalues --    0.08940   0.09197   0.09483   0.09676   0.10202
 Alpha virt. eigenvalues --    0.10347   0.10738   0.10976   0.11376   0.11528
 Alpha virt. eigenvalues --    0.11646   0.12165   0.12345   0.12455   0.12730
 Alpha virt. eigenvalues --    0.12946   0.13163   0.13283   0.13563   0.13884
 Alpha virt. eigenvalues --    0.14039   0.14196   0.14287   0.14563   0.14930
 Alpha virt. eigenvalues --    0.15424   0.15564   0.15675   0.15905   0.16049
 Alpha virt. eigenvalues --    0.16183   0.16634   0.16736   0.17187   0.17343
 Alpha virt. eigenvalues --    0.17626   0.17717   0.18008   0.18095   0.18260
 Alpha virt. eigenvalues --    0.18701   0.18927   0.19240   0.19323   0.19626
 Alpha virt. eigenvalues --    0.19927   0.19964   0.20203   0.20646   0.20895
 Alpha virt. eigenvalues --    0.21064   0.21260   0.21468   0.22008   0.22054
 Alpha virt. eigenvalues --    0.22139   0.22430   0.22827   0.23049   0.23188
 Alpha virt. eigenvalues --    0.23308   0.23428   0.23811   0.23968   0.24092
 Alpha virt. eigenvalues --    0.24395   0.24673   0.24819   0.24930   0.25106
 Alpha virt. eigenvalues --    0.25382   0.25699   0.26070   0.26341   0.26601
 Alpha virt. eigenvalues --    0.26678   0.26923   0.27019   0.27422   0.27556
 Alpha virt. eigenvalues --    0.27832   0.27910   0.28246   0.28453   0.28529
 Alpha virt. eigenvalues --    0.28637   0.28793   0.29064   0.29360   0.29747
 Alpha virt. eigenvalues --    0.29863   0.30053   0.30216   0.30596   0.30793
 Alpha virt. eigenvalues --    0.31109   0.31381   0.31651   0.31742   0.32206
 Alpha virt. eigenvalues --    0.32485   0.32871   0.33004   0.33333   0.33468
 Alpha virt. eigenvalues --    0.33710   0.33917   0.34308   0.34439   0.34680
 Alpha virt. eigenvalues --    0.34837   0.35214   0.35481   0.35917   0.36113
 Alpha virt. eigenvalues --    0.36501   0.36701   0.37035   0.37091   0.37184
 Alpha virt. eigenvalues --    0.37428   0.38160   0.38407   0.38483   0.38701
 Alpha virt. eigenvalues --    0.38919   0.39066   0.39287   0.39379   0.39505
 Alpha virt. eigenvalues --    0.39801   0.40131   0.40180   0.40436   0.40614
 Alpha virt. eigenvalues --    0.40865   0.41097   0.41128   0.41369   0.41457
 Alpha virt. eigenvalues --    0.41688   0.41786   0.42061   0.42434   0.42754
 Alpha virt. eigenvalues --    0.42823   0.43113   0.43297   0.43550   0.43737
 Alpha virt. eigenvalues --    0.43845   0.44031   0.44172   0.44407   0.44504
 Alpha virt. eigenvalues --    0.44821   0.44947   0.45045   0.45215   0.45386
 Alpha virt. eigenvalues --    0.45707   0.45928   0.46323   0.46487   0.46637
 Alpha virt. eigenvalues --    0.46726   0.46918   0.47067   0.47200   0.47560
 Alpha virt. eigenvalues --    0.47642   0.47946   0.48148   0.48340   0.48425
 Alpha virt. eigenvalues --    0.48926   0.48959   0.49083   0.49210   0.49425
 Alpha virt. eigenvalues --    0.49696   0.49960   0.50078   0.50244   0.50394
 Alpha virt. eigenvalues --    0.50689   0.50814   0.51112   0.51376   0.51702
 Alpha virt. eigenvalues --    0.51791   0.52024   0.52149   0.52249   0.52294
 Alpha virt. eigenvalues --    0.52495   0.52583   0.53142   0.53253   0.53490
 Alpha virt. eigenvalues --    0.53694   0.53785   0.53880   0.54109   0.54252
 Alpha virt. eigenvalues --    0.54289   0.54975   0.55161   0.55400   0.55705
 Alpha virt. eigenvalues --    0.55764   0.55950   0.56138   0.56431   0.56596
 Alpha virt. eigenvalues --    0.56834   0.57148   0.57541   0.57916   0.58015
 Alpha virt. eigenvalues --    0.58152   0.58576   0.58815   0.58981   0.59371
 Alpha virt. eigenvalues --    0.59555   0.60061   0.60225   0.60361   0.60411
 Alpha virt. eigenvalues --    0.60537   0.60750   0.61552   0.61783   0.61972
 Alpha virt. eigenvalues --    0.62344   0.62612   0.62856   0.62878   0.63373
 Alpha virt. eigenvalues --    0.63424   0.63635   0.64063   0.64270   0.64579
 Alpha virt. eigenvalues --    0.64795   0.64957   0.65008   0.65433   0.65779
 Alpha virt. eigenvalues --    0.66014   0.66383   0.66433   0.66648   0.67069
 Alpha virt. eigenvalues --    0.67165   0.67641   0.67673   0.67772   0.67968
 Alpha virt. eigenvalues --    0.68436   0.68722   0.68956   0.69575   0.69833
 Alpha virt. eigenvalues --    0.69921   0.70447   0.70608   0.70808   0.71034
 Alpha virt. eigenvalues --    0.71415   0.71668   0.71807   0.72208   0.72301
 Alpha virt. eigenvalues --    0.72470   0.72731   0.73076   0.73232   0.73624
 Alpha virt. eigenvalues --    0.73800   0.74194   0.74550   0.74996   0.75166
 Alpha virt. eigenvalues --    0.75404   0.75696   0.76102   0.76451   0.76584
 Alpha virt. eigenvalues --    0.76909   0.77134   0.77689   0.77780   0.78113
 Alpha virt. eigenvalues --    0.78271   0.78593   0.78917   0.79221   0.79276
 Alpha virt. eigenvalues --    0.79538   0.79835   0.79988   0.80470   0.80657
 Alpha virt. eigenvalues --    0.80721   0.81083   0.81348   0.81931   0.82093
 Alpha virt. eigenvalues --    0.82372   0.82679   0.82875   0.83525   0.83927
 Alpha virt. eigenvalues --    0.84160   0.84414   0.84684   0.85346   0.85545
 Alpha virt. eigenvalues --    0.85879   0.86204   0.86416   0.86997   0.87228
 Alpha virt. eigenvalues --    0.87407   0.87694   0.87955   0.88458   0.88710
 Alpha virt. eigenvalues --    0.89417   0.89625   0.90096   0.90176   0.90744
 Alpha virt. eigenvalues --    0.90963   0.91155   0.91743   0.92272   0.92437
 Alpha virt. eigenvalues --    0.92935   0.93227   0.93644   0.93942   0.94124
 Alpha virt. eigenvalues --    0.94474   0.94611   0.94815   0.95506   0.95678
 Alpha virt. eigenvalues --    0.96123   0.96314   0.96640   0.96874   0.97072
 Alpha virt. eigenvalues --    0.97336   0.97640   0.97902   0.98307   0.98577
 Alpha virt. eigenvalues --    0.99164   0.99414   0.99572   0.99989   1.00465
 Alpha virt. eigenvalues --    1.01003   1.01098   1.01358   1.01840   1.02216
 Alpha virt. eigenvalues --    1.02529   1.02637   1.02872   1.03268   1.03334
 Alpha virt. eigenvalues --    1.03596   1.03998   1.04192   1.04471   1.04938
 Alpha virt. eigenvalues --    1.05460   1.05713   1.05850   1.06186   1.06392
 Alpha virt. eigenvalues --    1.06767   1.07111   1.07626   1.08392   1.08488
 Alpha virt. eigenvalues --    1.08781   1.09172   1.09436   1.09775   1.10120
 Alpha virt. eigenvalues --    1.10433   1.10872   1.11031   1.11341   1.11620
 Alpha virt. eigenvalues --    1.11947   1.12293   1.12529   1.12847   1.13468
 Alpha virt. eigenvalues --    1.13603   1.13870   1.14036   1.14206   1.14574
 Alpha virt. eigenvalues --    1.14819   1.15137   1.15621   1.16298   1.16382
 Alpha virt. eigenvalues --    1.16959   1.17126   1.17414   1.18219   1.18437
 Alpha virt. eigenvalues --    1.19073   1.19293   1.19880   1.20167   1.20324
 Alpha virt. eigenvalues --    1.20815   1.21023   1.21479   1.21962   1.22740
 Alpha virt. eigenvalues --    1.23081   1.23294   1.23824   1.24172   1.24721
 Alpha virt. eigenvalues --    1.24941   1.25223   1.25548   1.26001   1.26459
 Alpha virt. eigenvalues --    1.26722   1.27011   1.27429   1.27707   1.28380
 Alpha virt. eigenvalues --    1.28615   1.29147   1.29503   1.30033   1.30224
 Alpha virt. eigenvalues --    1.30860   1.31219   1.31347   1.31599   1.32228
 Alpha virt. eigenvalues --    1.32761   1.33110   1.33608   1.33949   1.34073
 Alpha virt. eigenvalues --    1.34516   1.35206   1.35304   1.35622   1.36170
 Alpha virt. eigenvalues --    1.36899   1.37106   1.37401   1.37910   1.38854
 Alpha virt. eigenvalues --    1.39063   1.39219   1.39884   1.40297   1.40632
 Alpha virt. eigenvalues --    1.40822   1.41527   1.42006   1.42277   1.42975
 Alpha virt. eigenvalues --    1.43534   1.43867   1.44562   1.44802   1.45439
 Alpha virt. eigenvalues --    1.45639   1.45929   1.46064   1.46521   1.46875
 Alpha virt. eigenvalues --    1.47044   1.47406   1.47753   1.48356   1.48435
 Alpha virt. eigenvalues --    1.48956   1.49259   1.49438   1.49538   1.50182
 Alpha virt. eigenvalues --    1.50424   1.50743   1.50924   1.51069   1.51469
 Alpha virt. eigenvalues --    1.51815   1.52076   1.52235   1.52355   1.52686
 Alpha virt. eigenvalues --    1.52856   1.53437   1.53621   1.53774   1.53948
 Alpha virt. eigenvalues --    1.54169   1.54594   1.54883   1.55058   1.55476
 Alpha virt. eigenvalues --    1.55694   1.55874   1.56267   1.56483   1.57011
 Alpha virt. eigenvalues --    1.57151   1.57618   1.57755   1.58029   1.58513
 Alpha virt. eigenvalues --    1.58747   1.59033   1.59358   1.59924   1.60061
 Alpha virt. eigenvalues --    1.60340   1.60662   1.60928   1.61200   1.61317
 Alpha virt. eigenvalues --    1.61599   1.61775   1.62011   1.62483   1.62539
 Alpha virt. eigenvalues --    1.62894   1.63177   1.63533   1.63679   1.63826
 Alpha virt. eigenvalues --    1.64075   1.64495   1.64670   1.64793   1.64998
 Alpha virt. eigenvalues --    1.65358   1.65777   1.66162   1.66270   1.66568
 Alpha virt. eigenvalues --    1.67123   1.67278   1.67528   1.68040   1.68307
 Alpha virt. eigenvalues --    1.68781   1.69113   1.69552   1.69930   1.70055
 Alpha virt. eigenvalues --    1.70679   1.71073   1.71168   1.71489   1.71724
 Alpha virt. eigenvalues --    1.72237   1.72526   1.73371   1.73536   1.73884
 Alpha virt. eigenvalues --    1.74338   1.74474   1.74949   1.75026   1.75285
 Alpha virt. eigenvalues --    1.75587   1.75907   1.76580   1.76911   1.77362
 Alpha virt. eigenvalues --    1.77515   1.78237   1.78785   1.78941   1.79205
 Alpha virt. eigenvalues --    1.79861   1.80425   1.80562   1.80885   1.81271
 Alpha virt. eigenvalues --    1.81840   1.82812   1.83120   1.83783   1.84140
 Alpha virt. eigenvalues --    1.84478   1.85006   1.85273   1.85746   1.86031
 Alpha virt. eigenvalues --    1.86795   1.86873   1.87179   1.87719   1.87834
 Alpha virt. eigenvalues --    1.88395   1.89015   1.89147   1.89347   1.89744
 Alpha virt. eigenvalues --    1.90440   1.90590   1.90859   1.91330   1.91657
 Alpha virt. eigenvalues --    1.91828   1.91992   1.92334   1.92460   1.93359
 Alpha virt. eigenvalues --    1.93724   1.94118   1.94157   1.94568   1.95030
 Alpha virt. eigenvalues --    1.95613   1.95763   1.96044   1.96845   1.96886
 Alpha virt. eigenvalues --    1.97280   1.97901   1.98263   1.98581   1.99006
 Alpha virt. eigenvalues --    1.99258   1.99709   1.99871   2.00428   2.00682
 Alpha virt. eigenvalues --    2.01262   2.01551   2.01894   2.02243   2.02475
 Alpha virt. eigenvalues --    2.02973   2.03138   2.04068   2.04187   2.04253
 Alpha virt. eigenvalues --    2.05024   2.05274   2.05569   2.05893   2.06282
 Alpha virt. eigenvalues --    2.06345   2.06537   2.07021   2.07363   2.07680
 Alpha virt. eigenvalues --    2.08658   2.08825   2.08990   2.09431   2.09550
 Alpha virt. eigenvalues --    2.10469   2.10898   2.10994   2.11413   2.11973
 Alpha virt. eigenvalues --    2.12665   2.12971   2.13207   2.13680   2.14217
 Alpha virt. eigenvalues --    2.14849   2.15058   2.15154   2.15830   2.15909
 Alpha virt. eigenvalues --    2.16780   2.17349   2.17561   2.17865   2.18130
 Alpha virt. eigenvalues --    2.18784   2.19036   2.19324   2.19640   2.20003
 Alpha virt. eigenvalues --    2.20455   2.21159   2.21295   2.22032   2.22578
 Alpha virt. eigenvalues --    2.22980   2.23107   2.23622   2.23693   2.23892
 Alpha virt. eigenvalues --    2.24589   2.25527   2.26108   2.26401   2.26694
 Alpha virt. eigenvalues --    2.27079   2.27250   2.27756   2.28559   2.28691
 Alpha virt. eigenvalues --    2.29579   2.29870   2.30200   2.30646   2.31114
 Alpha virt. eigenvalues --    2.31807   2.32598   2.32940   2.33144   2.33784
 Alpha virt. eigenvalues --    2.33999   2.34069   2.34512   2.35035   2.35168
 Alpha virt. eigenvalues --    2.35369   2.35607   2.35977   2.36148   2.37014
 Alpha virt. eigenvalues --    2.37201   2.37307   2.38009   2.38252   2.38750
 Alpha virt. eigenvalues --    2.39785   2.40237   2.40391   2.40783   2.41278
 Alpha virt. eigenvalues --    2.41478   2.41857   2.42255   2.42601   2.42911
 Alpha virt. eigenvalues --    2.43082   2.43716   2.44060   2.44414   2.44825
 Alpha virt. eigenvalues --    2.44941   2.45428   2.45791   2.45836   2.46192
 Alpha virt. eigenvalues --    2.47264   2.47539   2.48375   2.48751   2.49077
 Alpha virt. eigenvalues --    2.49378   2.50019   2.50632   2.50940   2.51391
 Alpha virt. eigenvalues --    2.51674   2.52183   2.52495   2.53108   2.53141
 Alpha virt. eigenvalues --    2.53333   2.54027   2.54327   2.54642   2.55022
 Alpha virt. eigenvalues --    2.55190   2.55898   2.56294   2.56349   2.57129
 Alpha virt. eigenvalues --    2.57282   2.57384   2.57763   2.58078   2.58374
 Alpha virt. eigenvalues --    2.58730   2.58892   2.59229   2.59495   2.59856
 Alpha virt. eigenvalues --    2.60034   2.60355   2.60501   2.61251   2.61572
 Alpha virt. eigenvalues --    2.61783   2.62219   2.62450   2.62965   2.63188
 Alpha virt. eigenvalues --    2.63471   2.63538   2.64251   2.64732   2.65050
 Alpha virt. eigenvalues --    2.65383   2.65650   2.65864   2.66222   2.66294
 Alpha virt. eigenvalues --    2.67213   2.67247   2.67640   2.67796   2.68347
 Alpha virt. eigenvalues --    2.68686   2.68963   2.69265   2.69542   2.69767
 Alpha virt. eigenvalues --    2.70016   2.70427   2.70585   2.71190   2.71518
 Alpha virt. eigenvalues --    2.72472   2.72618   2.72822   2.73020   2.73607
 Alpha virt. eigenvalues --    2.73946   2.74168   2.74419   2.74694   2.74876
 Alpha virt. eigenvalues --    2.75521   2.76023   2.76399   2.76707   2.77239
 Alpha virt. eigenvalues --    2.77549   2.78270   2.78710   2.79076   2.79390
 Alpha virt. eigenvalues --    2.80028   2.80131   2.80502   2.81433   2.81529
 Alpha virt. eigenvalues --    2.82069   2.82283   2.82540   2.82955   2.83605
 Alpha virt. eigenvalues --    2.83801   2.84188   2.84395   2.84591   2.85308
 Alpha virt. eigenvalues --    2.85604   2.86199   2.86593   2.86893   2.87098
 Alpha virt. eigenvalues --    2.87548   2.87698   2.88196   2.88574   2.88821
 Alpha virt. eigenvalues --    2.89023   2.89357   2.89878   2.89965   2.90500
 Alpha virt. eigenvalues --    2.90652   2.91253   2.91498   2.91873   2.92586
 Alpha virt. eigenvalues --    2.92853   2.92991   2.93362   2.93653   2.93926
 Alpha virt. eigenvalues --    2.94239   2.94403   2.94848   2.95083   2.95468
 Alpha virt. eigenvalues --    2.95780   2.96079   2.96317   2.96683   2.97222
 Alpha virt. eigenvalues --    2.97513   2.97698   2.97732   2.98243   2.98746
 Alpha virt. eigenvalues --    2.99265   2.99466   3.00030   3.00288   3.00562
 Alpha virt. eigenvalues --    3.00761   3.01121   3.01396   3.01783   3.02017
 Alpha virt. eigenvalues --    3.02264   3.02581   3.02801   3.03231   3.03376
 Alpha virt. eigenvalues --    3.04165   3.04349   3.04511   3.05007   3.05146
 Alpha virt. eigenvalues --    3.05389   3.06043   3.06331   3.06469   3.06791
 Alpha virt. eigenvalues --    3.07238   3.07708   3.07842   3.08116   3.08399
 Alpha virt. eigenvalues --    3.08734   3.09297   3.09444   3.10005   3.10392
 Alpha virt. eigenvalues --    3.10889   3.11126   3.11319   3.11695   3.11891
 Alpha virt. eigenvalues --    3.12083   3.12520   3.12713   3.12976   3.13189
 Alpha virt. eigenvalues --    3.13580   3.13766   3.14079   3.14175   3.14369
 Alpha virt. eigenvalues --    3.14969   3.15099   3.15512   3.15694   3.16077
 Alpha virt. eigenvalues --    3.16279   3.16572   3.16741   3.17253   3.17709
 Alpha virt. eigenvalues --    3.18024   3.18274   3.18456   3.18622   3.19082
 Alpha virt. eigenvalues --    3.19723   3.19957   3.20242   3.20303   3.20445
 Alpha virt. eigenvalues --    3.20554   3.21046   3.21245   3.21477   3.21800
 Alpha virt. eigenvalues --    3.22153   3.22377   3.22826   3.23013   3.23146
 Alpha virt. eigenvalues --    3.23372   3.23586   3.24062   3.24274   3.24424
 Alpha virt. eigenvalues --    3.24770   3.25032   3.25337   3.25597   3.25874
 Alpha virt. eigenvalues --    3.26021   3.26610   3.26863   3.27301   3.27950
 Alpha virt. eigenvalues --    3.28133   3.28327   3.28542   3.28911   3.29030
 Alpha virt. eigenvalues --    3.29435   3.29629   3.30062   3.30186   3.30950
 Alpha virt. eigenvalues --    3.31049   3.31228   3.31550   3.31841   3.32077
 Alpha virt. eigenvalues --    3.32289   3.32549   3.32875   3.32974   3.33263
 Alpha virt. eigenvalues --    3.33468   3.33840   3.33988   3.34198   3.34537
 Alpha virt. eigenvalues --    3.34796   3.35096   3.35224   3.35397   3.35515
 Alpha virt. eigenvalues --    3.36204   3.36319   3.36758   3.36818   3.37105
 Alpha virt. eigenvalues --    3.37280   3.37597   3.37893   3.37916   3.38185
 Alpha virt. eigenvalues --    3.38397   3.38636   3.39051   3.39219   3.39563
 Alpha virt. eigenvalues --    3.39777   3.39962   3.40214   3.40427   3.40973
 Alpha virt. eigenvalues --    3.41034   3.41711   3.41857   3.42122   3.42626
 Alpha virt. eigenvalues --    3.43217   3.43639   3.43725   3.44053   3.44558
 Alpha virt. eigenvalues --    3.44725   3.44789   3.45416   3.45530   3.46157
 Alpha virt. eigenvalues --    3.46659   3.47080   3.47358   3.47663   3.47949
 Alpha virt. eigenvalues --    3.48320   3.48451   3.48944   3.49433   3.50073
 Alpha virt. eigenvalues --    3.50167   3.50327   3.50741   3.51000   3.51466
 Alpha virt. eigenvalues --    3.51827   3.52012   3.52157   3.52568   3.53220
 Alpha virt. eigenvalues --    3.53530   3.53769   3.54165   3.54702   3.55002
 Alpha virt. eigenvalues --    3.55491   3.55826   3.56430   3.56712   3.57245
 Alpha virt. eigenvalues --    3.57391   3.57956   3.58541   3.59029   3.59396
 Alpha virt. eigenvalues --    3.59423   3.59821   3.60096   3.60627   3.60857
 Alpha virt. eigenvalues --    3.61094   3.61562   3.62015   3.62072   3.62789
 Alpha virt. eigenvalues --    3.63010   3.63496   3.63728   3.64150   3.64476
 Alpha virt. eigenvalues --    3.64904   3.65278   3.65455   3.66309   3.66358
 Alpha virt. eigenvalues --    3.66783   3.67606   3.68013   3.68251   3.68554
 Alpha virt. eigenvalues --    3.68665   3.69007   3.69382   3.69644   3.70176
 Alpha virt. eigenvalues --    3.70377   3.70477   3.71052   3.71345   3.71602
 Alpha virt. eigenvalues --    3.72090   3.72339   3.72811   3.73703   3.73801
 Alpha virt. eigenvalues --    3.74092   3.74271   3.74613   3.74940   3.75526
 Alpha virt. eigenvalues --    3.75895   3.76096   3.76562   3.77232   3.77638
 Alpha virt. eigenvalues --    3.78219   3.78349   3.79170   3.79680   3.80248
 Alpha virt. eigenvalues --    3.80415   3.80716   3.80987   3.81480   3.82138
 Alpha virt. eigenvalues --    3.82621   3.82824   3.83133   3.84095   3.84813
 Alpha virt. eigenvalues --    3.85116   3.85194   3.86207   3.86412   3.86802
 Alpha virt. eigenvalues --    3.87413   3.87737   3.88040   3.88217   3.88681
 Alpha virt. eigenvalues --    3.89048   3.89441   3.90856   3.91375   3.92039
 Alpha virt. eigenvalues --    3.92783   3.92924   3.93790   3.94671   3.94989
 Alpha virt. eigenvalues --    3.95472   3.95530   3.96788   3.97318   3.97542
 Alpha virt. eigenvalues --    3.98204   3.98333   3.98643   3.98991   3.99369
 Alpha virt. eigenvalues --    4.00180   4.00762   4.00825   4.01562   4.02083
 Alpha virt. eigenvalues --    4.02649   4.03263   4.04006   4.04344   4.05010
 Alpha virt. eigenvalues --    4.05184   4.06265   4.06533   4.07741   4.08487
 Alpha virt. eigenvalues --    4.08713   4.09181   4.09417   4.10397   4.10739
 Alpha virt. eigenvalues --    4.11527   4.12165   4.12372   4.12739   4.13274
 Alpha virt. eigenvalues --    4.13386   4.13874   4.14399   4.15022   4.15490
 Alpha virt. eigenvalues --    4.15931   4.16260   4.16841   4.17761   4.18296
 Alpha virt. eigenvalues --    4.18527   4.19739   4.20199   4.20294   4.20484
 Alpha virt. eigenvalues --    4.20660   4.21331   4.22176   4.22782   4.23089
 Alpha virt. eigenvalues --    4.23649   4.24037   4.24426   4.24587   4.25693
 Alpha virt. eigenvalues --    4.26029   4.26171   4.26590   4.27210   4.27354
 Alpha virt. eigenvalues --    4.27961   4.28403   4.29161   4.29559   4.30119
 Alpha virt. eigenvalues --    4.30770   4.31212   4.31444   4.31883   4.33160
 Alpha virt. eigenvalues --    4.33808   4.34861   4.35079   4.35832   4.36229
 Alpha virt. eigenvalues --    4.36455   4.36777   4.38124   4.38702   4.39214
 Alpha virt. eigenvalues --    4.39729   4.39897   4.41172   4.42136   4.42203
 Alpha virt. eigenvalues --    4.42295   4.42950   4.43790   4.44216   4.44756
 Alpha virt. eigenvalues --    4.45206   4.45698   4.46011   4.46432   4.47239
 Alpha virt. eigenvalues --    4.48419   4.48907   4.50389   4.51046   4.52021
 Alpha virt. eigenvalues --    4.52293   4.52786   4.53620   4.54491   4.54854
 Alpha virt. eigenvalues --    4.55203   4.55680   4.56706   4.57186   4.57861
 Alpha virt. eigenvalues --    4.58976   4.59717   4.60609   4.62017   4.63034
 Alpha virt. eigenvalues --    4.63124   4.63840   4.64526   4.66149   4.66264
 Alpha virt. eigenvalues --    4.67046   4.67584   4.68487   4.69275   4.69601
 Alpha virt. eigenvalues --    4.70045   4.70593   4.72247   4.72489   4.73576
 Alpha virt. eigenvalues --    4.74278   4.74615   4.75206   4.75482   4.76310
 Alpha virt. eigenvalues --    4.76627   4.77564   4.77841   4.78730   4.79600
 Alpha virt. eigenvalues --    4.79976   4.80583   4.81914   4.82268   4.83360
 Alpha virt. eigenvalues --    4.84092   4.84429   4.84656   4.85536   4.86395
 Alpha virt. eigenvalues --    4.87499   4.87649   4.89209   4.89542   4.90003
 Alpha virt. eigenvalues --    4.90517   4.91329   4.91637   4.92441   4.93000
 Alpha virt. eigenvalues --    4.94241   4.95384   4.96297   4.96626   4.96815
 Alpha virt. eigenvalues --    4.97923   4.98695   4.98823   4.99934   5.00938
 Alpha virt. eigenvalues --    5.01843   5.03034   5.03646   5.04994   5.06297
 Alpha virt. eigenvalues --    5.06893   5.07112   5.08191   5.09129   5.09858
 Alpha virt. eigenvalues --    5.10111   5.10905   5.11819   5.12387   5.12703
 Alpha virt. eigenvalues --    5.13936   5.14218   5.17198   5.17478   5.18800
 Alpha virt. eigenvalues --    5.19869   5.20041   5.20514   5.20877   5.21078
 Alpha virt. eigenvalues --    5.21724   5.22355   5.22525   5.23504   5.23989
 Alpha virt. eigenvalues --    5.24533   5.24809   5.25267   5.28033   5.28309
 Alpha virt. eigenvalues --    5.28482   5.28932   5.29436   5.30687   5.31407
 Alpha virt. eigenvalues --    5.33575   5.36068   5.36666   5.38297   5.40304
 Alpha virt. eigenvalues --    5.40909   5.41610   5.42849   5.43097   5.43879
 Alpha virt. eigenvalues --    5.44779   5.44990   5.46205   5.46713   5.48765
 Alpha virt. eigenvalues --    5.49475   5.50092   5.50644   5.52082   5.54577
 Alpha virt. eigenvalues --    5.55613   5.57365   5.57755   5.58490   5.59576
 Alpha virt. eigenvalues --    5.61616   5.61946   5.63207   5.63924   5.64917
 Alpha virt. eigenvalues --    5.65441   5.65924   5.67424   5.69257   5.69735
 Alpha virt. eigenvalues --    5.70227   5.70985   5.71652   5.73126   5.73687
 Alpha virt. eigenvalues --    5.75206   5.76239   5.79177   5.81685   5.83442
 Alpha virt. eigenvalues --    5.83600   5.85264   5.87552   5.88165   5.88642
 Alpha virt. eigenvalues --    5.93264   5.95300   5.98097   6.03018   6.03759
 Alpha virt. eigenvalues --    6.05010   6.05648   6.08410   6.09089   6.11164
 Alpha virt. eigenvalues --    6.11813   6.13923   6.15487   6.17305   6.20435
 Alpha virt. eigenvalues --    6.22869   6.25527   6.26194   6.27368   6.34026
 Alpha virt. eigenvalues --    6.39189   6.39500   6.40584   6.43348   6.44116
 Alpha virt. eigenvalues --    6.44949   6.49522   6.50457   6.51705   6.51886
 Alpha virt. eigenvalues --    6.54334   6.55087   6.65520   6.68896   6.78683
 Alpha virt. eigenvalues --    6.83530   6.85234   6.87684   6.98219   6.99672
 Alpha virt. eigenvalues --    7.04387   7.09672   7.14596   7.17576   7.18734
 Alpha virt. eigenvalues --    7.24816   7.27523   7.32226  22.36343  22.43113
 Alpha virt. eigenvalues --   22.44690  22.54013  22.54468  22.54701  22.56128
 Alpha virt. eigenvalues --   22.61961  22.67572  22.69754  22.76716  22.80972
 Alpha virt. eigenvalues --   22.82574  22.84942  22.94756  22.96593  22.98929
 Alpha virt. eigenvalues --   23.01187  23.06314  23.07369  23.10059  23.13507
 Alpha virt. eigenvalues --   23.18253  23.26038  23.41569  23.42673  23.45094
 Alpha virt. eigenvalues --   23.47259  23.51955  23.56560  23.58592  23.60593
 Alpha virt. eigenvalues --   23.70815  23.76781  23.82985  23.95384  23.97588
 Alpha virt. eigenvalues --   24.08248  32.46208  32.66125  32.91754  32.95836
 Alpha virt. eigenvalues --   33.00134  33.11849  43.93784  43.97817  43.99378
 Alpha virt. eigenvalues --   44.01149
  Beta  occ. eigenvalues -- -256.31307 -30.03897 -25.87942 -25.87029 -25.86336
  Beta  occ. eigenvalues --  -19.25629 -19.24467 -19.17128 -19.16964 -14.46808
  Beta  occ. eigenvalues --  -14.39989 -14.35661 -14.35392 -14.35146 -14.34756
  Beta  occ. eigenvalues --  -10.34494 -10.33811 -10.29209 -10.27635 -10.24724
  Beta  occ. eigenvalues --  -10.24415 -10.24074 -10.23979 -10.23822 -10.23738
  Beta  occ. eigenvalues --  -10.23722 -10.23530 -10.23458 -10.23392 -10.23100
  Beta  occ. eigenvalues --  -10.22993 -10.22870 -10.22855 -10.22778 -10.22412
  Beta  occ. eigenvalues --  -10.22208 -10.22125 -10.21974 -10.21928 -10.21925
  Beta  occ. eigenvalues --  -10.21830 -10.21800 -10.21794 -10.21691 -10.21603
  Beta  occ. eigenvalues --  -10.21571 -10.21526 -10.21436 -10.21404 -10.21400
  Beta  occ. eigenvalues --  -10.21365 -10.21362 -10.21096  -3.35144  -2.10664
  Beta  occ. eigenvalues --   -2.09810  -2.09434  -1.18001  -1.17464  -1.09189
  Beta  occ. eigenvalues --   -1.02658  -1.02620  -0.99994  -0.99121  -0.98846
  Beta  occ. eigenvalues --   -0.98130  -0.93838  -0.84091  -0.83393  -0.83274
  Beta  occ. eigenvalues --   -0.83082  -0.82317  -0.81975  -0.81309  -0.81061
  Beta  occ. eigenvalues --   -0.79287  -0.78587  -0.77150  -0.75874  -0.74999
  Beta  occ. eigenvalues --   -0.74020  -0.73943  -0.72725  -0.72153  -0.71512
  Beta  occ. eigenvalues --   -0.70180  -0.69834  -0.69580  -0.67092  -0.66712
  Beta  occ. eigenvalues --   -0.66514  -0.65501  -0.65147  -0.64126  -0.62657
  Beta  occ. eigenvalues --   -0.61864  -0.58948  -0.58213  -0.58125  -0.56637
  Beta  occ. eigenvalues --   -0.55342  -0.54750  -0.53734  -0.52969  -0.52674
  Beta  occ. eigenvalues --   -0.52439  -0.52127  -0.51516  -0.50996  -0.50782
  Beta  occ. eigenvalues --   -0.50032  -0.49848  -0.49371  -0.49311  -0.48578
  Beta  occ. eigenvalues --   -0.48359  -0.46976  -0.46466  -0.46185  -0.46006
  Beta  occ. eigenvalues --   -0.45896  -0.45023  -0.44987  -0.44690  -0.44509
  Beta  occ. eigenvalues --   -0.44384  -0.44342  -0.44228  -0.43963  -0.43775
  Beta  occ. eigenvalues --   -0.43541  -0.43252  -0.42789  -0.42583  -0.42220
  Beta  occ. eigenvalues --   -0.41935  -0.41857  -0.41481  -0.41333  -0.40874
  Beta  occ. eigenvalues --   -0.40447  -0.40080  -0.39797  -0.39156  -0.38883
  Beta  occ. eigenvalues --   -0.38568  -0.38423  -0.38278  -0.37928  -0.37677
  Beta  occ. eigenvalues --   -0.37548  -0.36989  -0.36541  -0.36301  -0.36263
  Beta  occ. eigenvalues --   -0.35630  -0.35469  -0.35176  -0.34402  -0.34038
  Beta  occ. eigenvalues --   -0.33939  -0.32823  -0.32611  -0.32360  -0.31079
  Beta  occ. eigenvalues --   -0.30850  -0.30322  -0.30021  -0.29490  -0.27464
  Beta  occ. eigenvalues --   -0.27317  -0.27177  -0.27013  -0.25283  -0.23893
  Beta  occ. eigenvalues --   -0.23160  -0.21890  -0.20790  -0.19305  -0.18795
  Beta  occ. eigenvalues --   -0.16123
  Beta virt. eigenvalues --   -0.08382  -0.08277  -0.04668  -0.02393  -0.00604
  Beta virt. eigenvalues --   -0.00364  -0.00090   0.00988   0.01013   0.01542
  Beta virt. eigenvalues --    0.01993   0.02948   0.03626   0.04037   0.04386
  Beta virt. eigenvalues --    0.04415   0.04819   0.05448   0.05533   0.05847
  Beta virt. eigenvalues --    0.06372   0.06579   0.07176   0.07711   0.08088
  Beta virt. eigenvalues --    0.08354   0.08567   0.08647   0.09052   0.09282
  Beta virt. eigenvalues --    0.09594   0.09743   0.10315   0.10711   0.10964
  Beta virt. eigenvalues --    0.11021   0.11302   0.11561   0.11702   0.11813
  Beta virt. eigenvalues --    0.12266   0.12427   0.12536   0.12823   0.13047
  Beta virt. eigenvalues --    0.13254   0.13334   0.13691   0.13969   0.14132
  Beta virt. eigenvalues --    0.14364   0.14508   0.14802   0.15003   0.15487
  Beta virt. eigenvalues --    0.15608   0.15812   0.15937   0.16163   0.16239
  Beta virt. eigenvalues --    0.16690   0.16823   0.17217   0.17399   0.17703
  Beta virt. eigenvalues --    0.17740   0.18096   0.18132   0.18392   0.18736
  Beta virt. eigenvalues --    0.19055   0.19300   0.19601   0.19785   0.20009
  Beta virt. eigenvalues --    0.20090   0.20299   0.20740   0.21005   0.21249
  Beta virt. eigenvalues --    0.21307   0.21540   0.22076   0.22093   0.22264
  Beta virt. eigenvalues --    0.22595   0.22861   0.23089   0.23314   0.23345
  Beta virt. eigenvalues --    0.23573   0.23982   0.24103   0.24171   0.24481
  Beta virt. eigenvalues --    0.24767   0.24953   0.25189   0.25222   0.25504
  Beta virt. eigenvalues --    0.25857   0.26197   0.26521   0.26645   0.26708
  Beta virt. eigenvalues --    0.27047   0.27095   0.27592   0.27664   0.27916
  Beta virt. eigenvalues --    0.28147   0.28423   0.28516   0.28620   0.28803
  Beta virt. eigenvalues --    0.28890   0.29201   0.29537   0.29825   0.29973
  Beta virt. eigenvalues --    0.30266   0.30376   0.30650   0.30996   0.31213
  Beta virt. eigenvalues --    0.31567   0.31706   0.32027   0.32286   0.32544
  Beta virt. eigenvalues --    0.33006   0.33164   0.33484   0.33515   0.33819
  Beta virt. eigenvalues --    0.34018   0.34452   0.34633   0.34971   0.35044
  Beta virt. eigenvalues --    0.35434   0.35900   0.36053   0.36388   0.36685
  Beta virt. eigenvalues --    0.36923   0.37136   0.37194   0.37394   0.37610
  Beta virt. eigenvalues --    0.38252   0.38515   0.38563   0.38815   0.39056
  Beta virt. eigenvalues --    0.39209   0.39326   0.39452   0.39635   0.39862
  Beta virt. eigenvalues --    0.40218   0.40301   0.40576   0.40700   0.40944
  Beta virt. eigenvalues --    0.41164   0.41208   0.41430   0.41551   0.41776
  Beta virt. eigenvalues --    0.41822   0.42125   0.42466   0.42884   0.42926
  Beta virt. eigenvalues --    0.43217   0.43358   0.43578   0.43765   0.43905
  Beta virt. eigenvalues --    0.44111   0.44217   0.44496   0.44604   0.44847
  Beta virt. eigenvalues --    0.44999   0.45243   0.45300   0.45435   0.45847
  Beta virt. eigenvalues --    0.46063   0.46385   0.46552   0.46689   0.46871
  Beta virt. eigenvalues --    0.47000   0.47150   0.47238   0.47628   0.47719
  Beta virt. eigenvalues --    0.48064   0.48217   0.48448   0.48523   0.48978
  Beta virt. eigenvalues --    0.49088   0.49168   0.49264   0.49499   0.49749
  Beta virt. eigenvalues --    0.50057   0.50158   0.50301   0.50476   0.50772
  Beta virt. eigenvalues --    0.50927   0.51187   0.51443   0.51756   0.51921
  Beta virt. eigenvalues --    0.52065   0.52238   0.52300   0.52520   0.52624
  Beta virt. eigenvalues --    0.52788   0.53236   0.53304   0.53660   0.53768
  Beta virt. eigenvalues --    0.53848   0.53942   0.54203   0.54372   0.54498
  Beta virt. eigenvalues --    0.55034   0.55227   0.55514   0.55744   0.55820
  Beta virt. eigenvalues --    0.55976   0.56179   0.56600   0.56691   0.56947
  Beta virt. eigenvalues --    0.57241   0.57632   0.58010   0.58096   0.58227
  Beta virt. eigenvalues --    0.58642   0.58963   0.59079   0.59440   0.59806
  Beta virt. eigenvalues --    0.60120   0.60384   0.60410   0.60560   0.60644
  Beta virt. eigenvalues --    0.60826   0.61675   0.61838   0.62027   0.62431
  Beta virt. eigenvalues --    0.62641   0.62929   0.63007   0.63473   0.63529
  Beta virt. eigenvalues --    0.63775   0.64121   0.64469   0.64679   0.64974
  Beta virt. eigenvalues --    0.65022   0.65110   0.65568   0.65894   0.66063
  Beta virt. eigenvalues --    0.66486   0.66564   0.66773   0.67164   0.67235
  Beta virt. eigenvalues --    0.67727   0.67827   0.67906   0.68101   0.68507
  Beta virt. eigenvalues --    0.68921   0.69232   0.69705   0.69913   0.70038
  Beta virt. eigenvalues --    0.70566   0.70750   0.70927   0.71101   0.71524
  Beta virt. eigenvalues --    0.71744   0.71925   0.72255   0.72416   0.72557
  Beta virt. eigenvalues --    0.72813   0.73125   0.73321   0.73726   0.74024
  Beta virt. eigenvalues --    0.74273   0.74681   0.75080   0.75315   0.75511
  Beta virt. eigenvalues --    0.75828   0.76247   0.76559   0.76712   0.77014
  Beta virt. eigenvalues --    0.77298   0.77755   0.77885   0.78174   0.78348
  Beta virt. eigenvalues --    0.78670   0.79007   0.79281   0.79355   0.79709
  Beta virt. eigenvalues --    0.79924   0.80104   0.80700   0.80736   0.80885
  Beta virt. eigenvalues --    0.81177   0.81402   0.82062   0.82175   0.82488
  Beta virt. eigenvalues --    0.82716   0.82939   0.83626   0.83997   0.84246
  Beta virt. eigenvalues --    0.84487   0.84898   0.85397   0.85621   0.85975
  Beta virt. eigenvalues --    0.86316   0.86565   0.87120   0.87338   0.87440
  Beta virt. eigenvalues --    0.87777   0.88018   0.88508   0.88807   0.89528
  Beta virt. eigenvalues --    0.89699   0.90162   0.90255   0.90799   0.91050
  Beta virt. eigenvalues --    0.91250   0.91831   0.92375   0.92485   0.93075
  Beta virt. eigenvalues --    0.93341   0.93759   0.94018   0.94239   0.94532
  Beta virt. eigenvalues --    0.94713   0.94967   0.95560   0.95749   0.96213
  Beta virt. eigenvalues --    0.96451   0.96703   0.96994   0.97164   0.97386
  Beta virt. eigenvalues --    0.97770   0.98105   0.98381   0.98610   0.99217
  Beta virt. eigenvalues --    0.99599   0.99758   1.00191   1.00523   1.01108
  Beta virt. eigenvalues --    1.01248   1.01558   1.02055   1.02368   1.02643
  Beta virt. eigenvalues --    1.02794   1.02986   1.03370   1.03572   1.03735
  Beta virt. eigenvalues --    1.04267   1.04473   1.04586   1.05161   1.05524
  Beta virt. eigenvalues --    1.05975   1.06107   1.06423   1.06490   1.06932
  Beta virt. eigenvalues --    1.07438   1.07827   1.08481   1.08585   1.09010
  Beta virt. eigenvalues --    1.09270   1.09791   1.10066   1.10206   1.10547
  Beta virt. eigenvalues --    1.11006   1.11114   1.11408   1.11796   1.12197
  Beta virt. eigenvalues --    1.12444   1.12745   1.13128   1.13582   1.13766
  Beta virt. eigenvalues --    1.14024   1.14163   1.14281   1.14874   1.14941
  Beta virt. eigenvalues --    1.15501   1.15840   1.16448   1.16688   1.17038
  Beta virt. eigenvalues --    1.17317   1.17601   1.18452   1.18679   1.19326
  Beta virt. eigenvalues --    1.19528   1.19982   1.20320   1.20675   1.20958
  Beta virt. eigenvalues --    1.21423   1.21631   1.22116   1.22823   1.23465
  Beta virt. eigenvalues --    1.23502   1.24088   1.24389   1.24879   1.25137
  Beta virt. eigenvalues --    1.25566   1.25780   1.26155   1.26749   1.26865
  Beta virt. eigenvalues --    1.27191   1.27682   1.27953   1.28545   1.29106
  Beta virt. eigenvalues --    1.29422   1.29660   1.30303   1.30410   1.31131
  Beta virt. eigenvalues --    1.31378   1.31537   1.32053   1.32399   1.32913
  Beta virt. eigenvalues --    1.33484   1.33793   1.34182   1.34289   1.34805
  Beta virt. eigenvalues --    1.35336   1.35439   1.35809   1.36388   1.36973
  Beta virt. eigenvalues --    1.37310   1.37487   1.38096   1.38958   1.39233
  Beta virt. eigenvalues --    1.39384   1.40141   1.40533   1.40876   1.41049
  Beta virt. eigenvalues --    1.41622   1.42050   1.42406   1.43061   1.43630
  Beta virt. eigenvalues --    1.43969   1.44671   1.44908   1.45482   1.45742
  Beta virt. eigenvalues --    1.46040   1.46227   1.46628   1.47030   1.47239
  Beta virt. eigenvalues --    1.47507   1.47872   1.48465   1.48511   1.49057
  Beta virt. eigenvalues --    1.49296   1.49512   1.49669   1.50277   1.50504
  Beta virt. eigenvalues --    1.50826   1.51185   1.51443   1.51554   1.51884
  Beta virt. eigenvalues --    1.52194   1.52489   1.52711   1.52736   1.52986
  Beta virt. eigenvalues --    1.53515   1.53718   1.53900   1.54159   1.54382
  Beta virt. eigenvalues --    1.54648   1.54980   1.55138   1.55605   1.55793
  Beta virt. eigenvalues --    1.56020   1.56374   1.56597   1.57053   1.57236
  Beta virt. eigenvalues --    1.57661   1.57810   1.58110   1.58619   1.58828
  Beta virt. eigenvalues --    1.59092   1.59385   1.59993   1.60124   1.60438
  Beta virt. eigenvalues --    1.60704   1.61029   1.61261   1.61366   1.61692
  Beta virt. eigenvalues --    1.61795   1.62087   1.62484   1.62620   1.62901
  Beta virt. eigenvalues --    1.63245   1.63626   1.63728   1.63887   1.64146
  Beta virt. eigenvalues --    1.64577   1.64739   1.64893   1.65065   1.65394
  Beta virt. eigenvalues --    1.65823   1.66243   1.66387   1.66617   1.67208
  Beta virt. eigenvalues --    1.67354   1.67591   1.68146   1.68411   1.68826
  Beta virt. eigenvalues --    1.69241   1.69664   1.70074   1.70122   1.70763
  Beta virt. eigenvalues --    1.71177   1.71289   1.71571   1.71803   1.72336
  Beta virt. eigenvalues --    1.72625   1.73416   1.73721   1.73939   1.74414
  Beta virt. eigenvalues --    1.74617   1.74967   1.75110   1.75374   1.75661
  Beta virt. eigenvalues --    1.76025   1.76679   1.77041   1.77438   1.77559
  Beta virt. eigenvalues --    1.78376   1.78866   1.78990   1.79346   1.79931
  Beta virt. eigenvalues --    1.80467   1.80650   1.80970   1.81327   1.81993
  Beta virt. eigenvalues --    1.82894   1.83260   1.83856   1.84207   1.84549
  Beta virt. eigenvalues --    1.85015   1.85335   1.85787   1.86065   1.86831
  Beta virt. eigenvalues --    1.86957   1.87273   1.87740   1.88005   1.88506
  Beta virt. eigenvalues --    1.89107   1.89214   1.89418   1.89814   1.90587
  Beta virt. eigenvalues --    1.90706   1.90984   1.91494   1.91718   1.91895
  Beta virt. eigenvalues --    1.92015   1.92412   1.92576   1.93414   1.93816
  Beta virt. eigenvalues --    1.94198   1.94334   1.94648   1.95132   1.95802
  Beta virt. eigenvalues --    1.95934   1.96087   1.97012   1.97039   1.97343
  Beta virt. eigenvalues --    1.98020   1.98328   1.98668   1.99083   1.99374
  Beta virt. eigenvalues --    1.99743   2.00152   2.00536   2.00830   2.01409
  Beta virt. eigenvalues --    2.01757   2.02028   2.02466   2.02707   2.03083
  Beta virt. eigenvalues --    2.03264   2.04147   2.04294   2.04424   2.05062
  Beta virt. eigenvalues --    2.05406   2.05633   2.05960   2.06398   2.06509
  Beta virt. eigenvalues --    2.06727   2.07288   2.07438   2.07809   2.08756
  Beta virt. eigenvalues --    2.08933   2.09063   2.09449   2.09779   2.10529
  Beta virt. eigenvalues --    2.10990   2.11183   2.11523   2.12082   2.12872
  Beta virt. eigenvalues --    2.13191   2.13417   2.13829   2.14291   2.14990
  Beta virt. eigenvalues --    2.15173   2.15283   2.15907   2.16010   2.16872
  Beta virt. eigenvalues --    2.17453   2.17724   2.17951   2.18240   2.18873
  Beta virt. eigenvalues --    2.19167   2.19472   2.19869   2.20210   2.20515
  Beta virt. eigenvalues --    2.21265   2.21520   2.22226   2.22875   2.23241
  Beta virt. eigenvalues --    2.23402   2.23695   2.23936   2.24388   2.24957
  Beta virt. eigenvalues --    2.25592   2.26126   2.26557   2.26738   2.27110
  Beta virt. eigenvalues --    2.27406   2.28064   2.28621   2.28870   2.29723
  Beta virt. eigenvalues --    2.29931   2.30359   2.30721   2.31233   2.31898
  Beta virt. eigenvalues --    2.32655   2.33078   2.33275   2.33851   2.34071
  Beta virt. eigenvalues --    2.34224   2.34554   2.35105   2.35225   2.35396
  Beta virt. eigenvalues --    2.35708   2.36079   2.36586   2.37208   2.37270
  Beta virt. eigenvalues --    2.37752   2.38241   2.38349   2.39297   2.39914
  Beta virt. eigenvalues --    2.40335   2.40624   2.40935   2.41379   2.41549
  Beta virt. eigenvalues --    2.42007   2.42427   2.42700   2.43088   2.43199
  Beta virt. eigenvalues --    2.44109   2.44324   2.44585   2.45005   2.45170
  Beta virt. eigenvalues --    2.45754   2.45860   2.45908   2.46350   2.47491
  Beta virt. eigenvalues --    2.47676   2.48567   2.49053   2.49515   2.49862
  Beta virt. eigenvalues --    2.50263   2.50928   2.51016   2.51548   2.51883
  Beta virt. eigenvalues --    2.52330   2.52621   2.53182   2.53407   2.53477
  Beta virt. eigenvalues --    2.54224   2.54466   2.54719   2.55187   2.55291
  Beta virt. eigenvalues --    2.55957   2.56384   2.56463   2.57221   2.57371
  Beta virt. eigenvalues --    2.57517   2.57831   2.58166   2.58537   2.58780
  Beta virt. eigenvalues --    2.59016   2.59279   2.59648   2.60051   2.60127
[...]
                                                    1389(g),401(v),186(r),187(r)
  1726. BD*(   1) C  29 - C  30          0.01365     0.56198   
  1727. BD*(   2) C  29 - C  30          0.16838     0.05760  1725(v),1736(v),174(v)
                                                    1733(v),1734(v),923(g)
  1728. BD*(   1) C  29 - C  32          0.00791     0.37389   
  1729. BD*(   1) C  30 - C  31          0.01628     0.56450   
  1730. BD*(   1) C  30 - C  33          0.01154     0.55496   
  1731. BD*(   1) C  31 - N  47          0.01276     0.56181   
  1732. BD*(   1) C  32 - H  69          0.00358     0.42308   
  1733. BD*(   1) C  32 - H  70          0.00450     0.40957   
  1734. BD*(   1) C  32 - H  71          0.00411     0.41385   
  1735. BD*(   1) C  33 - C  34          0.00375     0.49651   
  1736. BD*(   2) C  33 - C  34          0.06212     0.02625   
  1737. BD*(   1) C  33 - H  87          0.00835     0.45380   
  1738. BD*(   1) C  34 - H  85          0.00231     0.45000   
  1739. BD*(   1) C  34 - H  86          0.00341     0.44762   
  1740. BD*(   1) C  35 - C  36          0.01631     0.57696   
  1741. BD*(   1) C  35 - N  48          0.01351     0.55833   
  1742. BD*(   2) C  35 - N  48          0.31372     0.02254  1744(v),175(v),185(r),192(r)
                                                    1079(g),191(r),1417(g)
                                                    428(v),187(r),190(r),189(r)
                                                    186(r),1669(r)
  1743. BD*(   1) C  36 - C  37          0.01113     0.57509   
  1744. BD*(   2) C  36 - C  37          0.14237     0.06230  1742(v),175(v),1752(v)
                                                    1749(v),1750(v)
  1745. BD*(   1) C  36 - C  39          0.00858     0.37694   
  1746. BD*(   1) C  37 - C  38          0.01618     0.57185   
  1747. BD*(   1) C  37 - C  40          0.01137     0.40441   
  1748. BD*(   1) C  38 - N  48          0.01304     0.55936   
  1749. BD*(   1) C  39 - H  79          0.00442     0.40828   
  1750. BD*(   1) C  39 - H  80          0.00378     0.41017   
  1751. BD*(   1) C  39 - H  81          0.00253     0.41616   
  1752. BD*(   1) C  40 - C  41          0.00806     0.37778   
  1753. BD*(   1) C  40 - H  58          0.00619     0.42406   
  1754. BD*(   1) C  40 - H  59          0.00735     0.41843   
  1755. BD*(   1) C  41 - C  42          0.04423     0.35391   
  1756. BD*(   1) C  41 - H  56          0.00627     0.38788   
  1757. BD*(   1) C  41 - H  57          0.00665     0.40185   
  1758. BD*(   1) C  42 - O  43          0.03260     0.57348   
  1759. BD*(   1) C  42 - O  44          0.02506     0.58701   
  1760. BD*(   2) C  42 - O  44          0.08773     0.03687   
  1761. BD*(   1) O  43 - H  55          0.00802     0.36996   
       -------------------------------
              Total Lewis  143.59285  ( 96.7598%)
        Valence non-Lewis    4.52132  (  3.0467%)
        Rydberg non-Lewis    0.28723  (  0.1935%)
       -------------------------------
            Total unit  2  148.40139  (100.0000%)
           Charge unit  2   -0.40139

 Molecular unit  3  (Fe)
   153. CR (   1)Fe  49                  1.00000  -250.74671  1667(r),1692(r),1707(r)
                                                    1685(r),1731(r),1724(r)
   154. CR (   2)Fe  49                  1.00000   -34.31207  187(g),1667(r),1692(r)
                                                    1707(r),1685(r),1731(r)
                                                    1724(r),1714(r),1741(r)
                                                    1748(r),1670(r)
   155. CR (   3)Fe  49                  0.99804    -4.57336  187(g),1667(r),1692(r)
                                                    1707(r),1685(r),1731(r)
                                                    1724(r),1741(r),1714(r)
                                                    1748(r),186(g),1670(r)
                                                    1742(r),323(r),1684(r)
                                                    1712(r),1723(r),1690(r)
                                                    1746(r),1672(r),1675(r)
                                                    1729(r),1740(r),1706(r)
                                                    1681(r),1338(r),1678(r)
                                                    1679(r)
   156. CR (   4)Fe  49                  1.00000   -25.80105   
   157. CR (   5)Fe  49                  0.99925    -2.14357  1692(r),1707(r),1741(r)
                                                    1731(r),1668(r),1742(r)
   158. CR (   6)Fe  49                  1.00000   -25.80784   
   159. CR (   7)Fe  49                  0.99923    -2.14681  1685(r),1714(r),1724(r)
                                                    1748(r),1670(r),1742(r)
   160. CR (   8)Fe  49                  1.00000   -25.81429   
   161. CR (   9)Fe  49                  0.99895    -2.15888  190(g),1667(r),1686(r)
                                                    323(r),1708(r),1725(r)
                                                    1670(r),1742(r)
   184. LP (   1)Fe  49                  0.94143    -0.15603  1668(r),1337(r),1389(r)
                                                    1686(r),1415(r),1725(r)
                                                    1708(r),1692(r),1441(g)
                                                    1685(r),1724(r),1714(r)
                                                    1741(r),1707(r),1363(r)
                                                    174(r),324(r),1731(r)
                                                    1748(r),1742(r),168(r)
                                                    1417(r),1339(r),297(r)
                                                    1416(r),326(r),1365(r)
                                                    1340(r),1338(r),1156(r)
                                                    454(r),327(r),173(r),1670(r)
                                                    1390(r),896(r),323(r)
                                                    1078(r),1364(r),1392(r)
                                                    1367(r),792(r),1341(r)
                                                    532(r),453(r)
   185. LP*(   2)Fe  49                  0.19762     0.01658  1708(r),1742(r),1686(r)
                                                    1725(r),1366(r),1340(r)
                                                    1418(r),1392(r),1416(r)
                                                    1417(r),1364(r),1390(r)
                                                    1363(r),1415(r),1675(r)
                                                    1672(r),1679(r),1681(r)
                                                    1676(r),1678(r)
   186. LP*(   3)Fe  49                  0.17063     0.07384  190(g),191(g),1445(g),192(g)
                                                    187(g),1363(r),1338(r)
                                                    1415(r),1337(r),1389(r)
                                                    1391(r),1364(r),1390(r)
                                                    1416(r),323(r),1714(r)
                                                    1685(r),1724(r),333(r)
                                                    1741(r),1748(r),1692(r)
                                                    1731(r),1707(r),326(r)
                                                    336(r),1725(r),1340(r)
                                                    1162(r),460(r),1343(r)
                                                    541(r)
   187. LP*(   4)Fe  49                  0.11975     0.34651  1446(g),190(g),1445(g)
                                                    323(r),326(r),1338(r)
                                                    1364(r),1390(r),1671(r)
                                                    1417(r),1416(r),1667(r)
                                                    1670(r),1340(r),1593(r)
                                                    1418(r),186(g),1669(r)
                                                    1392(r),1583(r),1366(r)
                                                    1363(r),324(r),428(r),325(r)
                                                    1365(r),1415(r),272(r)
                                                    1685(r),327(r),401(r)
                                                    1714(r),1339(r),1692(r)
                                                    1707(r),1162(r),1658(r)
                                                    1731(r),1741(r),541(r)
                                                    271(r),1343(r),1724(r)
                                                    1419(r),350(r),793(r),716(r)
                                                    1665(r),1748(r),460(r)
                                                    1369(r),453(r),973(r)
                                                    1158(r),1538(r),531(r)
                                                    1391(r),1518(r),904(r)
                                                    1558(r),279(r),329(r),533(r)
                                                    376(r),1666(r),1742(r)
                                                    430(r),723(r),534(r),975(r)
                                                    794(r),1395(r),898(r),456(r)
                                                    1077(r),298(r),797(r)
                                                    1086(r),301(r),1394(r)
                                                    1155(r),220(r),1389(r)
                                                    277(r),1370(r),982(r),796(r)
                                                    328(r),713(r),895(r),1675(r)
                                                    791(r),1080(r),1672(r)
                                                    436(r),1161(r),479(r),505(r)
                                                    800(r),1696(r),282(r),379(r)
                                                    1578(r),357(r),1157(r)
                                                    1422(r),901(r),1684(r)
                                                    976(r),725(r),722(r),974(r)
                                                    310(r),1678(r),236(r),537(r)
                                                    765(r),1681(r),921(r),390(r)
                                                    1132(r),897(r),427(r)
                                                    1584(r),902(r),979(r),718(r)
                                                    330(r),1674(r),947(r),739(r)
                                                    1088(r),1676(r),1723(r)
                                                    407(r),1421(r),1677(r)
                                                    383(r),482(r),1344(r),332(r)
                                                    352(r),1680(r),404(r),481(r)
                                                    1679(r),281(r),462(r)
                                                    1129(r),280(r),1371(r)
   188. LP*(   5)Fe  49                  0.10580     0.45350  1677(r),1680(r),1683(r)
                                                    191(g),325(r),1390(r)
                                                    1737(r),1665(r),1416(r)
                                                    1338(r),324(r),1389(r)
                                                    1365(r),1363(r),1685(r)
                                                    1714(r),1748(r),190(g)
                                                    1724(r),1674(r),1340(r)
                                                    1664(r),1443(g),1392(r)
                                                    1672(r),1707(r),323(r)
                                                    1679(r),1706(r),1339(r)
                                                    1418(r),1673(r),1441(g)
                                                    1690(r),428(r),1740(r)
                                                    1678(r),1729(r),1662(r)
                                                    299(r),895(r),973(r),453(r)
                                                    1670(r),1364(r),1712(r)
                                                    1681(r),531(r),1741(r)
                                                    1419(r),1675(r),288(r)
                                                    327(r),1156(r),1398(r)
                                                    1366(r),1345(r),1155(r)
                                                    1346(r),310(r),403(r)
                                                    1395(r),1078(r),1343(r)
                                                    1086(r),351(r),427(r),542(r)
                                                    376(r),714(r),792(r),1746(r)
                                                    1593(r),791(r),904(r)
                                                    1399(r),1391(r),329(r)
                                                    1397(r),1394(r),1347(r)
                                                    1393(r),315(r),979(r)
                                                    1367(r),1341(r),985(r)
                                                    401(r),375(r),541(r),1372(r)
                                                    532(r),983(r),1731(r)
   189. LP*(   6)Fe  49                  0.09958     0.47601   
   190. LP*(   7)Fe  49                  0.03747     0.18643   
   191. LP*(   8)Fe  49                  0.03439     0.11739   
   192. LP*(   9)Fe  49                  0.03032     0.10335   
  1441. RY*(   1)Fe  49                  0.00378     0.89670   
  1442. RY*(   2)Fe  49                  0.00199     0.56438   
  1443. RY*(   3)Fe  49                  0.00107     0.56797   
  1444. RY*(   4)Fe  49                  0.00062     1.21272   
  1445. RY*(   5)Fe  49                  0.00051     0.72066   
  1446. RY*(   6)Fe  49                  0.00023     0.83517   
  1447. RY*(   7)Fe  49                  0.00006     2.66589   
  1448. RY*(   8)Fe  49                  0.00006     2.05715   
  1449. RY*(   9)Fe  49                  0.00004     3.09042   
  1450. RY*(  10)Fe  49                  0.00003     2.51233   
  1451. RY*(  11)Fe  49                  0.00004     2.56765   
  1452. RY*(  12)Fe  49                  0.00003     2.46445   
  1453. RY*(  13)Fe  49                  0.00001     3.69187   
  1454. RY*(  14)Fe  49                  0.00001     3.84917   
  1455. RY*(  15)Fe  49                  0.00001     2.19315   
  1456. RY*(  16)Fe  49                  0.00001     3.77566   
  1457. RY*(  17)Fe  49                  0.00001     3.58388   
  1458. RY*(  18)Fe  49                  0.00001     3.20976   
  1459. RY*(  19)Fe  49                  0.00001     2.22639   
  1460. RY*(  20)Fe  49                  0.00000     4.05542   
  1461. RY*(  21)Fe  49                  0.00001     4.14830   
  1462. RY*(  22)Fe  49                  0.00001     3.43095   
  1463. RY*(  23)Fe  49                  0.00000     4.25252   
  1464. RY*(  24)Fe  49                  0.00001     4.00840   
  1465. RY*(  25)Fe  49                  0.00001     4.01460   
  1466. RY*(  26)Fe  49                  0.00001     3.98774   
  1467. RY*(  27)Fe  49                  0.00001     2.15323   
       -------------------------------
              Total Lewis    9.93690  ( 92.5134%)
        Valence non-Lewis    0.79556  (  7.4068%)
        Rydberg non-Lewis    0.00857  (  0.0798%)
       -------------------------------
            Total unit  3   10.74103  (100.0000%)
           Charge unit  3    2.25897
 1\1\GINC-NODE633\SP\UPBE1PBE\def2TZVP\C38H38Fe1N6O4(5)\ZHARTOVSKA\05-D
 ec-2022\0\\# PBE1PBE/def2TZVP empiricaldispersion=GD3BJ int=(grid=ultr
 afine) geom=check pop=nbo guess=read\\3ccx_II_Q\\0,5\C,0,-9.051,54.887
 001,107.522003\C,0,-8.537,55.679001,108.734001\N,0,-9.216,56.466999,10
 9.567001\C,0,-7.233,55.686001,109.231003\C,0,-8.422,56.925999,110.5230
 03\N,0,-7.202,56.446999,110.310997\C,0,-5.175,54.015999,112.921997\C,0
 ,-7.355,58.067001,114.328003\C,0,-5.763,60.249001,110.445999\C,0,-3.38
 9,56.311001,109.172997\C,0,-5.913,54.938,113.696999\C,0,-6.432,54.6539
 99,114.942001\C,0,-7.065,55.834,115.351997\C,0,-6.878,56.744999,114.32
 7003\C,0,-7.919,56.063,116.589996\C,0,-6.378,53.285999,115.634003\C,0,
 -5.295,53.131001,116.700996\C,0,-5.236,51.755001,117.363998\O,0,-6.103
 ,51.431999,118.169998\O,0,-4.335,50.962002,117.095001\C,0,-7.241,59.04
 4998,113.338997\C,0,-7.83,60.314999,113.374001\C,0,-7.343,60.948002,11
 2.234001\C,0,-6.53,60.008999,111.592003\C,0,-8.777,60.835999,114.44899
 7\C,0,-7.591,62.224998,111.716003\C,0,-8.62395012,63.00850418,112.2480
 3127\C,0,-4.893,59.400002,109.751999\C,0,-4.145,59.778,108.641998\C,0,
 -3.387,58.643002,108.335999\C,0,-3.807,57.651001,109.223999\C,0,-4.117
 ,61.174,108.005997\C,0,-2.439,58.389,107.333\C,0,-2.138,59.140999,106.
 144997\C,0,-3.74,55.256001,110.013\C,0,-3.412,53.926998,109.802002\C,0
 ,-3.932,53.261002,110.902\C,0,-4.544,54.227001,111.691002\C,0,-2.696,5
 3.308998,108.598\C,0,-3.889,51.762001,111.149002\C,0,-2.827,51.373001,
 112.156998\C,0,-2.818,49.919998,112.611\O,0,-2.226,49.653,113.639999\O
 ,0,-3.394,49.046001,111.970001\N,0,-6.201,56.203999,113.325996\N,0,-6.
 559,58.835999,112.216003\N,0,-4.685,58.126999,110.102997\N,0,-4.489,55
 .428001,111.107002\Fe,0,-5.725,57.066002,111.536003\H,0,-5.85383253,51
 .08712844,119.0305675\H,0,-4.34571158,53.32725306,116.2479655\H,0,-5.4
 6468176,53.86409466,117.46170737\H,0,-7.32766103,53.10568316,116.09283
 862\H,0,-6.21894107,52.53851195,114.88509488\H,0,-1.2661152,49.6492648
 2,113.65439422\H,0,-1.87063044,51.5911488,111.72960028\H,0,-2.95275919
 ,51.98860667,113.02308938\H,0,-3.68656552,51.26445913,110.2235981\H,0,
 -4.84384551,51.44356132,111.51199816\H,0,-5.08724941,53.03002294,113.3
 2826174\H,0,-7.39620599,56.70188146,117.27074331\H,0,-8.84222836,56.52
 347257,116.30624538\H,0,-8.11921717,55.1247106,117.0637323\H,0,-7.8794
 5056,58.36573186,115.2115252\H,0,-8.31394209,61.64850079,114.96891836\
 H,0,-9.68319379,61.17509938,113.99213405\H,0,-8.99856794,60.05008922,1
 15.14048342\H,0,-5.85609383,61.23349732,110.03734201\H,0,-3.23698524,6
 1.27488705,107.40575053\H,0,-4.98399694,61.30390451,107.39253052\H,0,-
 4.11049109,61.9167556,108.77617344\H,0,-2.70972745,56.0675726,108.3829
 1382\H,0,-6.39971318,55.16384721,108.8092347\H,0,-10.18896909,56.68183
 674,109.48229032\H,0,-8.71315632,57.57042227,111.32602644\H,0,-8.34701
 784,54.12100603,107.2718814\H,0,-9.99363297,54.44078289,107.76123609\H
 ,0,-9.1703254,55.54762428,106.68879334\H,0,-1.75697181,52.90285931,108
 .91133278\H,0,-3.30144194,52.52972648,108.18438671\H,0,-2.52920688,54.
 06251652,107.85685906\H,0,-6.99183618,62.60262785,110.91394414\H,0,-8.
 4404193,64.02962623,112.50980634\H,0,-9.59615887,62.58560386,112.39248
 01\H,0,-1.19027831,59.02254456,105.66261526\H,0,-2.86172672,59.8190663
 3,105.74332011\H,0,-1.85329176,57.50456169,107.47305258\\Version=ES64L
 -G16RevA.03\State=5-A\HF=-3362.2613768\S2=6.042375\S2-1=0.\S2A=6.00042
 8\RMSD=9.876e-10\Dipole=-1.9760255,0.7856341,-0.1403263\Quadrupole=21.
 5680386,-41.8140331,20.2459946,-6.9417834,4.940243,-1.2774033\PG=C01 [
 X(C38H38Fe1N6O4)]\\@


 ADAM SMITH SAID, "THE REAL PRICE OF ANYTHING IS THE TOIL AND TROUBLE
 OF ACQUIRING IT."  BUT IN ALL UNDERTAKINGS WITH NATURE WE SHOULD FIRST
 READ CAREFULLY THE SMALL PRINT IN THE CONTRACT. THIS MIGHT DISCLOSE
 THAT THE REAL PRICE IS TO BE PAID BY THOSE WHO INHERIT THE DEPLETION
 AND DESPOILATION THAT FOLLOWS.
                               -- E. R. HARRISON IN "COSMOLOGY" (1980)
 Job cpu time:       0 days  2 hours 11 minutes 59.9 seconds.
 Elapsed time:       0 days  0 hours 33 minutes  6.0 seconds.
 File lengths (MBytes):  RWF=   2825 Int=      0 D2E=      0 Chk=    238 Scr=      1
 Normal termination of Gaussian 16 at Mon Dec  5 12:14:05 2022.
