 Entering Gaussian System, Link 0=g16
 Input=/net/homes/chemie/zhartovska/work/BioModel/Konrad/6k9j/6k9j01/6k9j.com
 Output=/net/homes/chemie/zhartovska/work/BioModel/Konrad/6k9j/6k9j01/6k9j.log
 Initial command:
 /afs/math/software/gaussian/g16.A03/g16/l1.exe "/scratch/zhartovska_gaussian.CGl4NSy/Gau-2765.inp" -scrdir="/scratch/zhartovska_gaussian.CGl4NSy/"
 Entering Link 1 = /afs/math/software/gaussian/g16.A03/g16/l1.exe PID=      2766.
  
 Copyright (c) 1988,1990,1992,1993,1995,1998,2003,2009,2016,
            Gaussian, Inc.  All Rights Reserved.
  
 This is part of the Gaussian(R) 16 program.  It is based on
 the Gaussian(R) 09 system (copyright 2009, Gaussian, Inc.),
 the Gaussian(R) 03 system (copyright 2003, Gaussian, Inc.),
 the Gaussian(R) 98 system (copyright 1998, Gaussian, Inc.),
 the Gaussian(R) 94 system (copyright 1995, Gaussian, Inc.),
 the Gaussian 92(TM) system (copyright 1992, Gaussian, Inc.),
 the Gaussian 90(TM) system (copyright 1990, Gaussian, Inc.),
 the Gaussian 88(TM) system (copyright 1988, Gaussian, Inc.),
 the Gaussian 86(TM) system (copyright 1986, Carnegie Mellon
 University), and the Gaussian 82(TM) system (copyright 1983,
 Carnegie Mellon University). Gaussian is a federally registered
 trademark of Gaussian, Inc.
  
 This software contains proprietary and confidential information,
 including trade secrets, belonging to Gaussian, Inc.
  
 This software is provided under written license and may be
 used, copied, transmitted, or stored only in accord with that
 written license.
  
 The following legend is applicable only to US Government
 contracts under FAR:
  
                    RESTRICTED RIGHTS LEGEND
  
 Use, reproduction and disclosure by the US Government is
 subject to restrictions as set forth in subparagraphs (a)
 and (c) of the Commercial Computer Software - Restricted
 Rights clause in FAR 52.227-19.
  
 Gaussian, Inc.
 340 Quinnipiac St., Bldg. 40, Wallingford CT 06492
  
  
 ---------------------------------------------------------------
 Warning -- This program may not be used in any manner that
 competes with the business of Gaussian, Inc. or will provide
 assistance to any competitor of Gaussian, Inc.  The licensee
 of this program is prohibited from giving any competitor of
 Gaussian, Inc. access to this program.  By using this program,
 the user acknowledges that Gaussian, Inc. is engaged in the
 business of creating and licensing software in the field of
 computational chemistry and represents and warrants to the
 licensee that it is not a competitor of Gaussian, Inc. and that
 it will not use this program in any manner prohibited above.
 ---------------------------------------------------------------
  

 Cite this work as:
 Gaussian 16, Revision A.03,
 M. J. Frisch, G. W. Trucks, H. B. Schlegel, G. E. Scuseria, 
 M. A. Robb, J. R. Cheeseman, G. Scalmani, V. Barone, 
 G. A. Petersson, H. Nakatsuji, X. Li, M. Caricato, A. V. Marenich, 
 J. Bloino, B. G. Janesko, R. Gomperts, B. Mennucci, H. P. Hratchian, 
 J. V. Ortiz, A. F. Izmaylov, J. L. Sonnenberg, D. Williams-Young, 
 F. Ding, F. Lipparini, F. Egidi, J. Goings, B. Peng, A. Petrone, 
 T. Henderson, D. Ranasinghe, V. G. Zakrzewski, J. Gao, N. Rega, 
 G. Zheng, W. Liang, M. Hada, M. Ehara, K. Toyota, R. Fukuda, 
 J. Hasegawa, M. Ishida, T. Nakajima, Y. Honda, O. Kitao, H. Nakai, 
 T. Vreven, K. Throssell, J. A. Montgomery, Jr., J. E. Peralta, 
 F. Ogliaro, M. J. Bearpark, J. J. Heyd, E. N. Brothers, K. N. Kudin, 
 V. N. Staroverov, T. A. Keith, R. Kobayashi, J. Normand, 
 K. Raghavachari, A. P. Rendell, J. C. Burant, S. S. Iyengar, 
 J. Tomasi, M. Cossi, J. M. Millam, M. Klene, C. Adamo, R. Cammi, 
 J. W. Ochterski, R. L. Martin, K. Morokuma, O. Farkas, 
 J. B. Foresman, and D. J. Fox, Gaussian, Inc., Wallingford CT, 2016.
 
 ******************************************
 Gaussian 16:  ES64L-G16RevA.03 25-Dec-2016
                26-Jan-2023 
 ******************************************
 %nprocs=12
 Will use up to   12 processors via shared memory.
 %mem=16GB
 %chk=6k9j_II_S.chk
 ---------------------------------------------------------------------
 # polar def2tzvp empiricaldispersion=gd3bj int=grid=ultrafine pbe1pbe
 ---------------------------------------------------------------------
 1/38=1,172=1/1;
 2/12=2,17=6,18=5,40=1/2;
 3/5=44,7=101,11=2,25=1,30=1,74=-13,75=-5,124=41/1,2,3;
 4//1;
 5/5=2,38=5,98=1/2;
 8/6=4,10=90,11=11/1;
 10/6=1,13=10/2;
 6/7=2,8=2,9=2,10=2,28=1/1;
 99/5=1,9=1/99;
 ---------
 6k9j_II_S
 ---------
 Symbolic Z-matrix:
 Charge =  0 Multiplicity = 1
 C                     20.589   -0.269     0.293 
 C                     19.184    0.027    -0.154 
 N                     18.861    0.291    -1.449 
 C                     18.035    0.183     0.539 
 C                     17.561    0.565    -1.503 
 N                     16.995    0.506    -0.296 
 C                     11.162    0.21     -0.825 
 C                     11.833    0.485     0.537 
 S                     13.026    1.829     0.454 
 C                     12.891    2.534     2.064 
 Fe                    15.157    1.053     0.177 
 C                     14.38     1.933    -3.125 
 C                     16.539    4.117     0.61 
 C                     15.54     0.328     3.416 
 C                     14.235   -2.144    -0.506 
 N                     15.396    2.682    -1.005 
 C                     14.932    2.904    -2.293 
 C                     15.206    4.264    -2.705 
 C                     15.845    4.868    -1.672 
 C                     15.972    3.889    -0.616 
 C                     16.335    6.3      -1.57 
 C                     14.904    4.841    -4.059 
 C                     16.097    4.611    -5.004 
 C                     15.991    5.272    -6.373 
 O                     16.958    5.076    -7.149 
 O                     14.97     6.       -6.645 
 N                     15.913    2.071     1.739 
 C                     16.523    3.253     1.707 
 C                     17.009    3.553     3.011 
 C                     16.667    2.547     3.842 
 C                     15.986    1.56      2.988 
 C                     17.848    4.799     3.295 
 C                     16.792    2.441     5.307 
 C                     16.09     3.468     6.068 
 N                     14.863   -0.565     1.229 
 C                     15.077   -0.694     2.584 
 C                     14.842   -2.035     3.02 
 C                     14.53    -2.77      1.906 
 C                     14.545   -1.835     0.791 
 C                     15.057   -2.575     4.423 
 C                     14.408   -4.259     1.756 
 C                     13.481   -4.96      2.698 
 N                     14.506    0.1      -1.492 
 C                     14.145   -1.255    -1.571 
 C                     13.661   -1.575    -2.887 
 C                     13.692   -0.447    -3.631 
 C                     14.194    0.612    -2.741 
 C                     13.15    -2.949    -3.305 
 C                     13.169   -0.261    -5.035 
 C                     11.663   -0.021    -4.949 
 C                     10.9     -0.007    -6.239 
 O                     11.421   -0.261    -7.332 
 O                     9.632     0.262    -6.142 
 H                     21.27446   0.00053  -0.48314 
 H                     20.80903   0.29537   1.17503 
 H                     20.6832  -1.31352   0.50516 
 H                     17.94734   0.06964   1.59936 
 H                     17.03383   0.80336  -2.4031 
 H                     10.09996   0.2896   -0.72192 
 H                     11.41543  -0.77583  -1.15488 
 H                     11.50531   0.92552  -1.54268 
 H                     12.39234  -0.39518   0.7764 
 H                     11.05417   0.81823   1.19066 
 H                     13.81163   3.01485   2.32115 
 H                     12.09844   3.25279   2.0733 
 H                     12.68099   1.76229   2.77482 
 H                     14.08368   2.22036  -4.11218 
 H                     17.04491   5.05082   0.74015 
 H                     15.54918   0.13955   4.46923 
 H                     14.04245  -3.17413  -0.722 
 H                     17.33709   6.30822  -1.19497 
 H                     16.31289   6.75437  -2.53848 
 H                     15.70065   6.84749  -0.9046 
 H                     14.81447   5.8993   -3.92905 
 H                     14.08443   4.27956  -4.45647 
 H                     16.10955   3.55845  -5.19603 
 H                     16.93299   5.07767  -4.52626 
 H                     18.3031   4.11549   3.98101 
 H                     16.87322   5.23969   3.27297 
 H                     17.91554   5.42828   4.15775 
 H                     16.69991   3.78322   6.8887 
 H                     15.88559   4.30493   5.43345 
 H                     15.16942   3.06939   6.44022 
 H                     15.99587  -3.08623   4.46842 
 H                     15.05835  -1.76401   5.121 
 H                     14.26827  -3.25523   4.66812 
 H                     13.91084  -5.89478   2.9918 
 H                     13.32509  -4.35124   3.56403 
 H                     12.54405  -5.13536   2.21191 
 H                     13.7447  -3.31992  -4.11348 
 H                     13.21632  -3.6217   -2.47556 
 H                     12.13029  -2.86983  -3.61936 
 H                     13.31086  -1.18867  -5.549 
 H                     13.60907   0.6358   -5.41839 
 H                     11.5599   0.96758  -4.55278 
 H                     11.27736  -0.85812  -4.40548 
 H                     19.49152   0.28076  -2.22511 
 H                     17.85787   5.15789  -6.82477 
 H                     9.34666   1.12427  -5.83107 
 H                     14.95833  -4.7937    1.01025 
 H                     17.35798   1.66513   5.77879 
 
 Stoichiometry    C41H48FeN6O4S
 Framework group  C1[X(C41H48FeN6O4S)]
 Deg. of freedom   297
 Full point group                 C1      NOp   1
 Largest Abelian subgroup         C1      NOp   1
 Largest concise Abelian subgroup C1      NOp   1
                         Standard orientation:                         
 ---------------------------------------------------------------------
 Center     Atomic      Atomic             Coordinates (Angstroms)
 Number     Number       Type             X           Y           Z
 ---------------------------------------------------------------------
      1          6           0        2.618348   -1.740274    4.948203
      2          6           0        1.782700   -1.236437    3.803960
      3          7           0        0.422835   -1.210439    3.837733
      4          6           0        2.116597   -0.819644    2.563162
      5          6           0       -0.011310   -0.767685    2.661519
      6          7           0        0.999592   -0.502631    1.831755
      7          6           0       -0.879830    2.803911   -2.632089
      8          6           0        0.509754    2.133586   -2.657231
      9         16           0        0.428710    0.374790   -2.287713
     10          6           0        1.756754   -0.261194   -3.256822
     11         26           0        0.868325   -0.048439   -0.085968
     12          6           0       -2.633473   -0.182732   -0.059356
     13          6           0        0.938575   -3.405888   -0.542159
     14          6           0        4.178584    0.161681   -0.487804
     15          6           0        0.705949    3.200550    0.891317
     16          7           0       -0.548895   -1.485201   -0.273287
     17          6           0       -1.927791   -1.350831   -0.337431
     18          6           0       -2.550497   -2.626175   -0.620549
     19          6           0       -1.552173   -3.539263   -0.719770
     20          6           0       -0.307421   -2.838321   -0.498457
     21          6           0       -1.652639   -5.021194   -1.027856
     22          6           0       -4.030329   -2.874243   -0.698074
     23          6           0       -4.574498   -3.234339    0.695980
     24          6           0       -6.038536   -3.654562    0.744193
     25          8           0       -6.486940   -3.937627    1.881949
     26          8           0       -6.709928   -3.729412   -0.346696
     27          7           0        2.302503   -1.409597   -0.457571
     28          6           0        2.160980   -2.731682   -0.505618
     29          6           0        3.444445   -3.323799   -0.675108
     30          6           0        4.366737   -2.342430   -0.751612
     31          6           0        3.611878   -1.092471   -0.564430
     32          6           0        3.643458   -4.839533   -0.669043
     33          6           0        5.802704   -2.411742   -1.077618
     34          6           0        6.118050   -2.973822   -2.385776
     35          7           0        2.146880    1.415845    0.093574
     36          6           0        3.506301    1.327214   -0.112776
     37          6           0        4.157087    2.564602    0.185470
     38          6           0        3.192572    3.425415    0.640747
     39          6           0        1.937173    2.692324    0.575747
     40          6           0        5.653331    2.822965    0.158287
     41          6           0        3.351691    4.768574    1.292750
     42          6           0        4.165830    5.785398    0.556992
     43          7           0       -0.655153    1.209850    0.375870
     44          6           0       -0.518119    2.557817    0.745726
     45          6           0       -1.807961    3.166738    0.930214
     46          6           0       -2.752437    2.236650    0.666053
     47          6           0       -2.024014    1.015600    0.286553
     48          6           0       -2.023560    4.630558    1.296914
     49          6           0       -4.247347    2.439800    0.608473
     50          6           0       -4.593006    3.009123   -0.766090
     51          6           0       -6.001717    3.475858   -0.976223
     52          8           0       -6.846742    3.493727   -0.072774
     53          8           0       -6.284431    3.896517   -2.173183
     54          1           0        1.996574   -2.274728    5.635703
     55          1           0        3.379228   -2.392865    4.573922
     56          1           0        3.073827   -0.911721    5.449141
     57          1           0        3.119912   -0.746339    2.198628
     58          1           0       -1.043732   -0.639729    2.411255
     59          1           0       -1.063663    3.279127   -3.572980
     60          1           0       -0.909025    3.535123   -1.851463
     61          1           0       -1.630404    2.062316   -2.454390
     62          1           0        1.069744    2.579376   -1.861880
     63          1           0        0.858972    2.210102   -3.665741
     64          1           0        2.120679   -1.164696   -2.813941
     65          1           0        1.409308   -0.464692   -4.248169
     66          1           0        2.546399    0.459762   -3.296605
     67          1           0       -3.701651   -0.210441   -0.115289
     68          1           0        0.979282   -4.472880   -0.611226
     69          1           0        5.215877    0.249378   -0.735258
     70          1           0        0.683388    4.193052    1.290481
     71          1           0       -1.052347   -5.571306   -0.333648
     72          1           0       -2.672299   -5.334553   -0.944196
     73          1           0       -1.304137   -5.203021   -2.023037
     74          1           0       -4.165118   -3.739163   -1.313415
     75          1           0       -4.483607   -1.945203   -0.974341
     76          1           0       -4.518618   -2.330444    1.265849
     77          1           0       -4.020398   -4.096236    1.004210
     78          1           0        4.555030   -4.536530   -0.197741
     79          1           0        3.283067   -4.709420   -1.668087
     80          1           0        4.333932   -5.467304   -1.192540
     81          1           0        6.973135   -3.611714   -2.303167
     82          1           0        5.283071   -3.540833   -2.741032
     83          1           0        6.329324   -2.181332   -3.072961
     84          1           0        6.042544    2.770102    1.153586
     85          1           0        6.131662    2.085136   -0.451390
     86          1           0        5.840013    3.795698   -0.246486
     87          1           0        4.757139    6.341278    1.254309
     88          1           0        4.808540    5.290598   -0.140860
     89          1           0        3.514107    6.451577    0.031291
     90          1           0       -2.556049    4.691559    2.223000
     91          1           0       -1.075537    5.116304    1.397928
     92          1           0       -2.590428    5.111306    0.527212
     93          1           0       -4.490750    3.191103    1.330413
     94          1           0       -4.698983    1.471782    0.670660
     95          1           0       -4.464591    2.193439   -1.446582
     96          1           0       -3.990137    3.887662   -0.864170
     97          1           0       -0.150374   -1.477773    4.612306
     98          1           0       -5.976270   -4.494380    2.474268
     99          1           0       -6.253566    3.288467   -2.915424
    100          1           0        2.903745    4.988200    2.239328
    101          1           0        6.560301   -2.073447   -0.401967
 ---------------------------------------------------------------------
 Rotational constants (GHZ):           0.0637196           0.0446025           0.0332156
 Standard basis: def2TZVP (5D, 7F)
 There are  2218 symmetry adapted cartesian basis functions of A   symmetry.
 There are  1951 symmetry adapted basis functions of A   symmetry.
  1951 basis functions,  3156 primitive gaussians,  2218 cartesian basis functions
   205 alpha electrons      205 beta electrons
       nuclear repulsion energy      8962.6350236285 Hartrees.
 NAtoms=  101 NActive=  101 NUniq=  101 SFac= 1.00D+00 NAtFMM=   60 NAOKFM=T Big=T
 Integral buffers will be    131072 words long.
 Raffenetti 2 integral format.
 Two-electron integral symmetry is turned on.
 Nuclear repulsion after empirical dispersion term =     8962.4835026890 Hartrees.
 One-electron integrals computed using PRISM.
   1 Symmetry operations used in ECPInt.
 ECPInt:  NShTT=  305371 NPrTT=  941867 LenC2=  223450 LenP2D=  446165.
 LDataN:  DoStor=T MaxTD1= 6 Len=  172
 NBasis=  1951 RedAO= T EigKep=  2.87D-06  NBF=  1951
 NBsUse=  1951 1.00D-06 EigRej= -1.00D+00 NBFU=  1951
 ExpMin= 4.20D-02 ExpMax= 3.01D+05 ExpMxC= 2.91D+03 IAcc=3 IRadAn=         5 AccDes= 0.00D+00
 Harris functional with IExCor= 1009 and IRadAn=       5 diagonalized for initial guess.
 HarFok:  IExCor= 1009 AccDes= 0.00D+00 IRadAn=         5 IDoV= 1 UseB2=F ITyADJ=14
 ICtDFT=  3500011 ScaDFX=  1.000000  1.000000  1.000000  1.000000
 FoFCou: FMM=F IPFlag=           0 FMFlag=      100000 FMFlg1=        2001
         NFxFlg=           0 DoJE=T BraDBF=F KetDBF=T FulRan=T
         wScrn=  0.000000 ICntrl=       500 IOpCl=  0 I1Cent=   200000004 NGrid=           0
         NMat0=    1 NMatS0=      1 NMatT0=    0 NMatD0=    1 NMtDS0=    0 NMtDT0=    0
 Petite list used in FoFCou.
 Requested convergence on RMS density matrix=1.00D-08 within 128 cycles.
 Requested convergence on MAX density matrix=1.00D-06.
 Requested convergence on             energy=1.00D-06.
 No special actions if energy rises.
 EnCoef did    19 forward-backward iterations
 EnCoef did   100 forward-backward iterations
 EnCoef did    10 forward-backward iterations
 EnCoef did     4 forward-backward iterations
 EnCoef did   100 forward-backward iterations
 EnCoef did     6 forward-backward iterations
 EnCoef did     2 forward-backward iterations
 EnCoef did    21 forward-backward iterations
 Rare condition: small coef for last iteration:  0.000D+00
 EnCoef did   100 forward-backward iterations
 Rare condition: small coef for last iteration:  0.000D+00
 Restarting incremental Fock formation.
 SCF Done:  E(RPBE1PBE) =  -3880.34195063     A.U. after   29 cycles
            NFock= 29  Conv=0.41D-08     -V/T= 2.0031
 DoSCS=F DFT=T ScalE2(SS,OS)=  1.000000  1.000000
 Range of M.O.s used for correlation:     1  1951
 NBasis=  1951 NAE=   205 NBE=   205 NFC=     0 NFV=     0
 NROrb=   1951 NOA=   205 NOB=   205 NVA=  1746 NVB=  1746

 **** Warning!!: The largest alpha MO coefficient is  0.48671424D+02


 **** Warning!!: The smallest alpha delta epsilon is  0.26063601D-01

          Differentiating once with respect to electric field.
                with respect to dipole field.
          Electric field/nuclear overlap derivatives assumed to be zero.
          There are     3 degrees of freedom in the 1st order CPHF.  IDoFFX=0 NUNeed=     3.
      3 vectors produced by pass  0 Test12= 1.19D-11 3.33D-08 XBig12= 1.87D+04 7.86D+01.
 AX will form     3 AO Fock derivatives at one time.
      3 vectors produced by pass  1 Test12= 1.19D-11 3.33D-08 XBig12= 1.41D+04 3.61D+01.
      3 vectors produced by pass  2 Test12= 1.19D-11 3.33D-08 XBig12= 1.50D+04 4.00D+01.
      3 vectors produced by pass  3 Test12= 1.19D-11 3.33D-08 XBig12= 2.18D+04 3.51D+01.
      3 vectors produced by pass  4 Test12= 1.19D-11 3.33D-08 XBig12= 3.24D+04 6.48D+01.
      3 vectors produced by pass  5 Test12= 1.19D-11 3.33D-08 XBig12= 1.14D+04 3.76D+01.
      3 vectors produced by pass  6 Test12= 1.19D-11 3.33D-08 XBig12= 4.98D+03 1.73D+01.
      3 vectors produced by pass  7 Test12= 1.19D-11 3.33D-08 XBig12= 2.59D+03 1.17D+01.
      3 vectors produced by pass  8 Test12= 1.19D-11 3.33D-08 XBig12= 1.37D+03 6.18D+00.
      3 vectors produced by pass  9 Test12= 1.19D-11 3.33D-08 XBig12= 6.55D+02 6.09D+00.
      3 vectors produced by pass 10 Test12= 1.19D-11 3.33D-08 XBig12= 4.57D+02 4.61D+00.
      3 vectors produced by pass 11 Test12= 1.19D-11 3.33D-08 XBig12= 2.19D+02 2.10D+00.
      3 vectors produced by pass 12 Test12= 1.19D-11 3.33D-08 XBig12= 1.05D+02 1.66D+00.
      3 vectors produced by pass 13 Test12= 1.19D-11 3.33D-08 XBig12= 6.47D+01 1.14D+00.
      3 vectors produced by pass 14 Test12= 1.19D-11 3.33D-08 XBig12= 2.75D+01 8.35D-01.
      3 vectors produced by pass 15 Test12= 1.19D-11 3.33D-08 XBig12= 1.16D+01 4.94D-01.
      3 vectors produced by pass 16 Test12= 1.19D-11 3.33D-08 XBig12= 4.58D+00 3.14D-01.
      3 vectors produced by pass 17 Test12= 1.19D-11 3.33D-08 XBig12= 1.70D+00 1.43D-01.
      3 vectors produced by pass 18 Test12= 1.19D-11 3.33D-08 XBig12= 6.59D-01 1.19D-01.
      3 vectors produced by pass 19 Test12= 1.19D-11 3.33D-08 XBig12= 1.88D-01 5.47D-02.
      3 vectors produced by pass 20 Test12= 1.19D-11 3.33D-08 XBig12= 5.72D-02 3.86D-02.
      3 vectors produced by pass 21 Test12= 1.19D-11 3.33D-08 XBig12= 1.39D-02 2.07D-02.
      3 vectors produced by pass 22 Test12= 1.19D-11 3.33D-08 XBig12= 3.01D-03 9.21D-03.
      3 vectors produced by pass 23 Test12= 1.19D-11 3.33D-08 XBig12= 7.86D-04 5.11D-03.
      3 vectors produced by pass 24 Test12= 1.19D-11 3.33D-08 XBig12= 1.46D-04 1.81D-03.
      3 vectors produced by pass 25 Test12= 1.19D-11 3.33D-08 XBig12= 3.63D-05 8.66D-04.
      3 vectors produced by pass 26 Test12= 1.19D-11 3.33D-08 XBig12= 8.26D-06 4.38D-04.
      3 vectors produced by pass 27 Test12= 1.19D-11 3.33D-08 XBig12= 1.36D-06 1.58D-04.
      3 vectors produced by pass 28 Test12= 1.19D-11 3.33D-08 XBig12= 2.90D-07 7.50D-05.
      3 vectors produced by pass 29 Test12= 1.19D-11 3.33D-08 XBig12= 6.21D-08 5.07D-05.
      3 vectors produced by pass 30 Test12= 1.19D-11 3.33D-08 XBig12= 1.35D-08 1.95D-05.
      3 vectors produced by pass 31 Test12= 1.19D-11 3.33D-08 XBig12= 2.44D-09 8.75D-06.
      3 vectors produced by pass 32 Test12= 1.19D-11 3.33D-08 XBig12= 5.50D-10 4.33D-06.
      2 vectors produced by pass 33 Test12= 1.19D-11 3.33D-08 XBig12= 1.03D-10 1.53D-06.
      2 vectors produced by pass 34 Test12= 1.19D-11 3.33D-08 XBig12= 1.82D-11 5.28D-07.
      2 vectors produced by pass 35 Test12= 1.19D-11 3.33D-08 XBig12= 3.42D-12 3.12D-07.
      2 vectors produced by pass 36 Test12= 1.19D-11 3.33D-08 XBig12= 5.35D-13 1.25D-07.
      1 vectors produced by pass 37 Test12= 1.19D-11 3.33D-08 XBig12= 1.14D-13 5.57D-08.
 InvSVY:  IOpt=1 It=  1 EMax= 5.68D-14
 Solved reduced A of dimension   108 with     3 vectors.
 Isotropic polarizability for W=    0.000000      807.95 Bohr**3.
 End of Minotr F.D. properties file   721 does not exist.
 End of Minotr F.D. properties file   722 does not exist.
 End of Minotr F.D. properties file   788 does not exist.
 Hyperfine terms turned off by default for NAtoms > 100.

 **********************************************************************

            Population analysis using the SCF density.

 **********************************************************************

 Orbital symmetries:
       Occupied  (A) (A) (A) (A) (A) (A) (A) (A) (A) (A) (A) (A)
                 (A) (A) (A) (A) (A) (A) (A) (A) (A) (A) (A) (A)
                 (A) (A) (A) (A) (A) (A) (A) (A) (A) (A) (A) (A)
                 (A) (A) (A) (A) (A) (A) (A) (A) (A) (A) (A) (A)
                 (A) (A) (A) (A) (A) (A) (A) (A) (A) (A) (A) (A)
                 (A) (A) (A) (A) (A) (A) (A) (A) (A) (A) (A) (A)
                 (A) (A) (A) (A) (A) (A) (A) (A) (A) (A) (A) (A)
                 (A) (A) (A) (A) (A) (A) (A) (A) (A) (A) (A) (A)
                 (A) (A) (A) (A) (A) (A) (A) (A) (A) (A) (A) (A)
                 (A) (A) (A) (A) (A) (A) (A) (A) (A) (A) (A) (A)
                 (A) (A) (A) (A) (A) (A) (A) (A) (A) (A) (A) (A)
                 (A) (A) (A) (A) (A) (A) (A) (A) (A) (A) (A) (A)
                 (A) (A) (A) (A) (A) (A) (A) (A) (A) (A) (A) (A)
                 (A) (A) (A) (A) (A) (A) (A) (A) (A) (A) (A) (A)
                 (A) (A) (A) (A) (A) (A) (A) (A) (A) (A) (A) (A)
                 (A) (A) (A) (A) (A) (A) (A) (A) (A) (A) (A) (A)
                 (A) (A) (A) (A) (A) (A) (A) (A) (A) (A) (A) (A)
                 (A)
       Virtual   (A) (A) (A) (A) (A) (A) (A) (A) (A) (A) (A) (A)
                 (A) (A) (A) (A) (A) (A) (A) (A) (A) (A) (A) (A)
                 (A) (A) (A) (A) (A) (A) (A) (A) (A) (A) (A) (A)
                 (A) (A) (A) (A) (A) (A) (A) (A) (A) (A) (A) (A)
                 (A) (A) (A) (A) (A) (A) (A) (A) (A) (A) (A) (A)
                 (A) (A) (A) (A) (A) (A) (A) (A) (A) (A) (A) (A)
                 (A) (A) (A) (A) (A) (A) (A) (A) (A) (A) (A) (A)
                 (A) (A) (A) (A) (A) (A) (A) (A) (A) (A) (A) (A)
                 (A) (A) (A) (A) (A) (A) (A) (A) (A) (A) (A) (A)
                 (A) (A) (A) (A) (A) (A) (A) (A) (A) (A) (A) (A)
                 (A) (A) (A) (A) (A) (A) (A) (A) (A) (A) (A) (A)
                 (A) (A) (A) (A) (A) (A) (A) (A) (A) (A) (A) (A)
                 (A) (A) (A) (A) (A) (A) (A) (A) (A) (A) (A) (A)
                 (A) (A) (A) (A) (A) (A) (A) (A) (A) (A) (A) (A)
                 (A) (A) (A) (A) (A) (A) (A) (A) (A) (A) (A) (A)
                 (A) (A) (A) (A) (A) (A) (A) (A) (A) (A) (A) (A)
                 (A) (A) (A) (A) (A) (A) (A) (A) (A) (A) (A) (A)
                 (A) (A) (A) (A) (A) (A) (A) (A) (A) (A) (A) (A)
                 (A) (A) (A) (A) (A) (A) (A) (A) (A) (A) (A) (A)
                 (A) (A) (A) (A) (A) (A) (A) (A) (A) (A) (A) (A)
                 (A) (A) (A) (A) (A) (A) (A) (A) (A) (A) (A) (A)
                 (A) (A) (A) (A) (A) (A) (A) (A) (A) (A) (A) (A)
                 (A) (A) (A) (A) (A) (A) (A) (A) (A) (A) (A) (A)
                 (A) (A) (A) (A) (A) (A) (A) (A) (A) (A) (A) (A)
                 (A) (A) (A) (A) (A) (A) (A) (A) (A) (A) (A) (A)
                 (A) (A) (A) (A) (A) (A) (A) (A) (A) (A) (A) (A)
                 (A) (A) (A) (A) (A) (A) (A) (A) (A) (A) (A) (A)
                 (A) (A) (A) (A) (A) (A) (A) (A) (A) (A) (A) (A)
                 (A) (A) (A) (A) (A) (A) (A) (A) (A) (A) (A) (A)
                 (A) (A) (A) (A) (A) (A) (A) (A) (A) (A) (A) (A)
                 (A) (A) (A) (A) (A) (A) (A) (A) (A) (A) (A) (A)
                 (A) (A) (A) (A) (A) (A) (A) (A) (A) (A) (A) (A)
                 (A) (A) (A) (A) (A) (A) (A) (A) (A) (A) (A) (A)
                 (A) (A) (A) (A) (A) (A) (A) (A) (A) (A) (A) (A)
                 (A) (A) (A) (A) (A) (A) (A) (A) (A) (A) (A) (A)
                 (A) (A) (A) (A) (A) (A) (A) (A) (A) (A) (A) (A)
                 (A) (A) (A) (A) (A) (A) (A) (A) (A) (A) (A) (A)
                 (A) (A) (A) (A) (A) (A) (A) (A) (A) (A) (A) (A)
                 (A) (A) (A) (A) (A) (A) (A) (A) (A) (A) (A) (A)
                 (A) (A) (A) (A) (A) (A) (A) (A) (A) (A) (A) (A)
                 (A) (A) (A) (A) (A) (A) (A) (A) (A) (A) (A) (A)
                 (A) (A) (A) (A) (A) (A) (A) (A) (A) (A) (A) (A)
                 (A) (A) (A) (A) (A) (A) (A) (A) (A) (A) (A) (A)
                 (A) (A) (A) (A) (A) (A) (A) (A) (A) (A) (A) (A)
                 (A) (A) (A) (A) (A) (A) (A) (A) (A) (A) (A) (A)
                 (A) (A) (A) (A) (A) (A) (A) (A) (A) (A) (A) (A)
                 (A) (A) (A) (A) (A) (A) (A) (A) (A) (A) (A) (A)
                 (A) (A) (A) (A) (A) (A) (A) (A) (A) (A) (A) (A)
                 (A) (A) (A) (A) (A) (A) (A) (A) (A) (A) (A) (A)
                 (A) (A) (A) (A) (A) (A) (A) (A) (A) (A) (A) (A)
                 (A) (A) (A) (A) (A) (A) (A) (A) (A) (A) (A) (A)
                 (A) (A) (A) (A) (A) (A) (A) (A) (A) (A) (A) (A)
                 (A) (A) (A) (A) (A) (A) (A) (A) (A) (A) (A) (A)
                 (A) (A) (A) (A) (A) (A) (A) (A) (A) (A) (A) (A)
                 (A) (A) (A) (A) (A) (A) (A) (A) (A) (A) (A) (A)
                 (A) (A) (A) (A) (A) (A) (A) (A) (A) (A) (A) (A)
                 (A) (A) (A) (A) (A) (A) (A) (A) (A) (A) (A) (A)
                 (A) (A) (A) (A) (A) (A) (A) (A) (A) (A) (A) (A)
                 (A) (A) (A) (A) (A) (A) (A) (A) (A) (A) (A) (A)
                 (A) (A) (A) (A) (A) (A) (A) (A) (A) (A) (A) (A)
                 (A) (A) (A) (A) (A) (A) (A) (A) (A) (A) (A) (A)
                 (A) (A) (A) (A) (A) (A) (A) (A) (A) (A) (A) (A)
                 (A) (A) (A) (A) (A) (A) (A) (A) (A) (A) (A) (A)
                 (A) (A) (A) (A) (A) (A) (A) (A) (A) (A) (A) (A)
                 (A) (A) (A) (A) (A) (A) (A) (A) (A) (A) (A) (A)
                 (A) (A) (A) (A) (A) (A) (A) (A) (A) (A) (A) (A)
                 (A) (A) (A) (A) (A) (A) (A) (A) (A) (A) (A) (A)
                 (A) (A) (A) (A) (A) (A) (A) (A) (A) (A) (A) (A)
                 (A) (A) (A) (A) (A) (A) (A) (A) (A) (A) (A) (A)
                 (A) (A) (A) (A) (A) (A) (A) (A) (A) (A) (A) (A)
                 (A) (A) (A) (A) (A) (A) (A) (A) (A) (A) (A) (A)
                 (A) (A) (A) (A) (A) (A) (A) (A) (A) (A) (A) (A)
                 (A) (A) (A) (A) (A) (A) (A) (A) (A) (A) (A) (A)
                 (A) (A) (A) (A) (A) (A) (A) (A) (A) (A) (A) (A)
                 (A) (A) (A) (A) (A) (A) (A) (A) (A) (A) (A) (A)
                 (A) (A) (A) (A) (A) (A) (A) (A) (A) (A) (A) (A)
                 (A) (A) (A) (A) (A) (A) (A) (A) (A) (A) (A) (A)
                 (A) (A) (A) (A) (A) (A) (A) (A) (A) (A) (A) (A)
                 (A) (A) (A) (A) (A) (A) (A) (A) (A) (A) (A) (A)
                 (A) (A) (A) (A) (A) (A) (A) (A) (A) (A) (A) (A)
                 (A) (A) (A) (A) (A) (A) (A) (A) (A) (A) (A) (A)
                 (A) (A) (A) (A) (A) (A) (A) (A) (A) (A) (A) (A)
                 (A) (A) (A) (A) (A) (A) (A) (A) (A) (A) (A) (A)
                 (A) (A) (A) (A) (A) (A) (A) (A) (A) (A) (A) (A)
                 (A) (A) (A) (A) (A) (A) (A) (A) (A) (A) (A) (A)
                 (A) (A) (A) (A) (A) (A) (A) (A) (A) (A) (A) (A)
                 (A) (A) (A) (A) (A) (A) (A) (A) (A) (A) (A) (A)
                 (A) (A) (A) (A) (A) (A) (A) (A) (A) (A) (A) (A)
                 (A) (A) (A) (A) (A) (A) (A) (A) (A) (A) (A) (A)
                 (A) (A) (A) (A) (A) (A) (A) (A) (A) (A) (A) (A)
                 (A) (A) (A) (A) (A) (A) (A) (A) (A) (A) (A) (A)
                 (A) (A) (A) (A) (A) (A) (A) (A) (A) (A) (A) (A)
                 (A) (A) (A) (A) (A) (A) (A) (A) (A) (A) (A) (A)
                 (A) (A) (A) (A) (A) (A) (A) (A) (A) (A) (A) (A)
                 (A) (A) (A) (A) (A) (A) (A) (A) (A) (A) (A) (A)
                 (A) (A) (A) (A) (A) (A) (A) (A) (A) (A) (A) (A)
                 (A) (A) (A) (A) (A) (A) (A) (A) (A) (A) (A) (A)
                 (A) (A) (A) (A) (A) (A) (A) (A) (A) (A) (A) (A)
                 (A) (A) (A) (A) (A) (A) (A) (A) (A) (A) (A) (A)
                 (A) (A) (A) (A) (A) (A) (A) (A) (A) (A) (A) (A)
                 (A) (A) (A) (A) (A) (A) (A) (A) (A) (A) (A) (A)
                 (A) (A) (A) (A) (A) (A) (A) (A) (A) (A) (A) (A)
                 (A) (A) (A) (A) (A) (A) (A) (A) (A) (A) (A) (A)
                 (A) (A) (A) (A) (A) (A) (A) (A) (A) (A) (A) (A)
                 (A) (A) (A) (A) (A) (A) (A) (A) (A) (A) (A) (A)
                 (A) (A) (A) (A) (A) (A) (A) (A) (A) (A) (A) (A)
                 (A) (A) (A) (A) (A) (A) (A) (A) (A) (A) (A) (A)
                 (A) (A) (A) (A) (A) (A) (A) (A) (A) (A) (A) (A)
                 (A) (A) (A) (A) (A) (A) (A) (A) (A) (A) (A) (A)
                 (A) (A) (A) (A) (A) (A) (A) (A) (A) (A) (A) (A)
                 (A) (A) (A) (A) (A) (A) (A) (A) (A) (A) (A) (A)
                 (A) (A) (A) (A) (A) (A) (A) (A) (A) (A) (A) (A)
                 (A) (A) (A) (A) (A) (A) (A) (A) (A) (A) (A) (A)
                 (A) (A) (A) (A) (A) (A) (A) (A) (A) (A) (A) (A)
                 (A) (A) (A) (A) (A) (A) (A) (A) (A) (A) (A) (A)
                 (A) (A) (A) (A) (A) (A) (A) (A) (A) (A) (A) (A)
                 (A) (A) (A) (A) (A) (A) (A) (A) (A) (A) (A) (A)
                 (A) (A) (A) (A) (A) (A) (A) (A) (A) (A) (A) (A)
                 (A) (A) (A) (A) (A) (A) (A) (A) (A) (A) (A) (A)
                 (A) (A) (A) (A) (A) (A) (A) (A) (A) (A) (A) (A)
                 (A) (A) (A) (A) (A) (A) (A) (A) (A) (A) (A) (A)
                 (A) (A) (A) (A) (A) (A) (A) (A) (A) (A) (A) (A)
                 (A) (A) (A) (A) (A) (A) (A) (A) (A) (A) (A) (A)
                 (A) (A) (A) (A) (A) (A) (A) (A) (A) (A) (A) (A)
                 (A) (A) (A) (A) (A) (A) (A) (A) (A) (A) (A) (A)
                 (A) (A) (A) (A) (A) (A) (A) (A) (A) (A) (A) (A)
                 (A) (A) (A) (A) (A) (A) (A) (A) (A) (A) (A) (A)
                 (A) (A) (A) (A) (A) (A) (A) (A) (A) (A) (A) (A)
                 (A) (A) (A) (A) (A) (A) (A) (A) (A) (A) (A) (A)
                 (A) (A) (A) (A) (A) (A) (A) (A) (A) (A) (A) (A)
                 (A) (A) (A) (A) (A) (A) (A) (A) (A) (A) (A) (A)
                 (A) (A) (A) (A) (A) (A) (A) (A) (A) (A) (A) (A)
                 (A) (A) (A) (A) (A) (A) (A) (A) (A) (A) (A) (A)
                 (A) (A) (A) (A) (A) (A) (A) (A) (A) (A) (A) (A)
                 (A) (A) (A) (A) (A) (A) (A) (A) (A) (A) (A) (A)
                 (A) (A) (A) (A) (A) (A) (A) (A) (A) (A) (A) (A)
                 (A) (A) (A) (A) (A) (A) (A) (A) (A) (A) (A) (A)
                 (A) (A) (A) (A) (A) (A) (A) (A) (A) (A) (A) (A)
                 (A) (A) (A) (A) (A) (A) (A) (A) (A) (A) (A) (A)
                 (A) (A) (A) (A) (A) (A) (A) (A) (A) (A) (A) (A)
                 (A) (A) (A) (A) (A) (A) (A) (A) (A) (A) (A) (A)
                 (A) (A) (A) (A) (A) (A) (A) (A) (A) (A) (A) (A)
                 (A) (A) (A) (A) (A) (A) (A) (A) (A) (A) (A) (A)
                 (A) (A) (A) (A) (A) (A) (A) (A) (A) (A) (A) (A)
                 (A) (A) (A) (A) (A) (A) (A) (A) (A) (A) (A) (A)
                 (A) (A) (A) (A) (A) (A)
 The electronic state is 1-A.
 Alpha  occ. eigenvalues -- -256.31538 -89.01944 -30.08548 -25.91350 -25.91078
 Alpha  occ. eigenvalues --  -25.90873 -19.27218 -19.24893 -19.18735 -19.18440
 Alpha  occ. eigenvalues --  -14.45220 -14.39740 -14.37866 -14.37255 -14.37085
 Alpha  occ. eigenvalues --  -14.36191 -10.36043 -10.35313 -10.28140 -10.26039
 Alpha  occ. eigenvalues --  -10.25094 -10.24810 -10.24682 -10.24681 -10.24629
 Alpha  occ. eigenvalues --  -10.24399 -10.24296 -10.24269 -10.24212 -10.24203
 Alpha  occ. eigenvalues --  -10.23737 -10.23546 -10.23372 -10.23347 -10.23270
 Alpha  occ. eigenvalues --  -10.22763 -10.22600 -10.22547 -10.22391 -10.22375
 Alpha  occ. eigenvalues --  -10.22250 -10.22105 -10.22096 -10.22010 -10.21781
 Alpha  occ. eigenvalues --  -10.21627 -10.21601 -10.21577 -10.21395 -10.21369
 Alpha  occ. eigenvalues --  -10.21333 -10.21211 -10.20947 -10.20843 -10.20580
 Alpha  occ. eigenvalues --  -10.20167 -10.17849  -7.99837  -5.93483  -5.93184
 Alpha  occ. eigenvalues --   -5.92675  -3.42965  -2.18957  -2.18400  -2.18060
 Alpha  occ. eigenvalues --   -1.17259  -1.14406  -1.06906  -1.03368  -1.01608
 Alpha  occ. eigenvalues --   -0.98723  -0.97192  -0.96539  -0.95475  -0.91828
 Alpha  occ. eigenvalues --   -0.84630  -0.84482  -0.84094  -0.84045  -0.83281
 Alpha  occ. eigenvalues --   -0.82177  -0.81411  -0.81237  -0.80835  -0.79551
 Alpha  occ. eigenvalues --   -0.78763  -0.78295  -0.77097  -0.76792  -0.75298
 Alpha  occ. eigenvalues --   -0.74308  -0.73125  -0.73073  -0.72805  -0.72030
 Alpha  occ. eigenvalues --   -0.70254  -0.69685  -0.69177  -0.67085  -0.66724
 Alpha  occ. eigenvalues --   -0.66146  -0.65755  -0.65208  -0.64606  -0.62871
 Alpha  occ. eigenvalues --   -0.62501  -0.62444  -0.60000  -0.59282  -0.57704
 Alpha  occ. eigenvalues --   -0.56853  -0.55737  -0.55172  -0.54803  -0.54089
 Alpha  occ. eigenvalues --   -0.53494  -0.52945  -0.52692  -0.52398  -0.51702
 Alpha  occ. eigenvalues --   -0.51320  -0.51008  -0.49887  -0.49550  -0.49257
 Alpha  occ. eigenvalues --   -0.48557  -0.48518  -0.48269  -0.48092  -0.47792
 Alpha  occ. eigenvalues --   -0.47375  -0.47058  -0.46050  -0.45920  -0.45740
 Alpha  occ. eigenvalues --   -0.45186  -0.44858  -0.44673  -0.44564  -0.44411
 Alpha  occ. eigenvalues --   -0.44185  -0.44065  -0.43952  -0.43894  -0.43659
 Alpha  occ. eigenvalues --   -0.43419  -0.43368  -0.43294  -0.42963  -0.42718
 Alpha  occ. eigenvalues --   -0.42372  -0.42263  -0.41631  -0.41535  -0.41218
 Alpha  occ. eigenvalues --   -0.41076  -0.40567  -0.40048  -0.39969  -0.39525
 Alpha  occ. eigenvalues --   -0.39422  -0.39300  -0.39126  -0.38928  -0.38733
 Alpha  occ. eigenvalues --   -0.38482  -0.37911  -0.37789  -0.37442  -0.37345
 Alpha  occ. eigenvalues --   -0.37252  -0.36758  -0.36455  -0.36124  -0.35899
 Alpha  occ. eigenvalues --   -0.35682  -0.35242  -0.35008  -0.34566  -0.34481
 Alpha  occ. eigenvalues --   -0.33416  -0.33011  -0.32818  -0.32666  -0.32373
 Alpha  occ. eigenvalues --   -0.32088  -0.30613  -0.29977  -0.28362  -0.28260
 Alpha  occ. eigenvalues --   -0.28005  -0.27661  -0.26754  -0.26065  -0.24951
 Alpha  occ. eigenvalues --   -0.24504  -0.24411  -0.23294  -0.20734  -0.20568
 Alpha  occ. eigenvalues --   -0.19590  -0.18952  -0.18688  -0.18346  -0.13932
 Alpha virt. eigenvalues --   -0.11326  -0.06610  -0.06148  -0.01367  -0.00767
 Alpha virt. eigenvalues --   -0.00533   0.00504   0.01418   0.01783   0.02059
 Alpha virt. eigenvalues --    0.02224   0.03121   0.03632   0.04046   0.04217
 Alpha virt. eigenvalues --    0.04471   0.04736   0.05083   0.05442   0.05466
 Alpha virt. eigenvalues --    0.05618   0.05960   0.06100   0.06651   0.06953
 Alpha virt. eigenvalues --    0.07407   0.07511   0.07624   0.07887   0.08151
 Alpha virt. eigenvalues --    0.08672   0.08920   0.09093   0.09498   0.09907
 Alpha virt. eigenvalues --    0.10142   0.10246   0.10508   0.10785   0.10925
 Alpha virt. eigenvalues --    0.11122   0.11174   0.11473   0.11772   0.12090
 Alpha virt. eigenvalues --    0.12250   0.12437   0.12524   0.12747   0.13204
 Alpha virt. eigenvalues --    0.13515   0.13584   0.13675   0.13843   0.14198
 Alpha virt. eigenvalues --    0.14257   0.14564   0.14590   0.14936   0.15126
 Alpha virt. eigenvalues --    0.15150   0.15223   0.15552   0.15610   0.15776
 Alpha virt. eigenvalues --    0.16109   0.16361   0.16689   0.17049   0.17349
 Alpha virt. eigenvalues --    0.17399   0.17686   0.17924   0.18220   0.18415
 Alpha virt. eigenvalues --    0.18472   0.18663   0.18757   0.19041   0.19148
 Alpha virt. eigenvalues --    0.19412   0.19638   0.19830   0.20305   0.20456
 Alpha virt. eigenvalues --    0.20623   0.20710   0.20850   0.21162   0.21192
 Alpha virt. eigenvalues --    0.21466   0.21767   0.22122   0.22332   0.22510
 Alpha virt. eigenvalues --    0.22706   0.22797   0.23014   0.23391   0.23543
 Alpha virt. eigenvalues --    0.23759   0.24021   0.24256   0.24532   0.24815
 Alpha virt. eigenvalues --    0.24937   0.25088   0.25220   0.25319   0.25718
 Alpha virt. eigenvalues --    0.25845   0.26052   0.26087   0.26282   0.26433
 Alpha virt. eigenvalues --    0.26578   0.26949   0.27063   0.27336   0.27480
 Alpha virt. eigenvalues --    0.27792   0.27945   0.28051   0.28244   0.28311
 Alpha virt. eigenvalues --    0.28480   0.28962   0.29161   0.29253   0.29652
 Alpha virt. eigenvalues --    0.29902   0.30131   0.30277   0.30472   0.30552
 Alpha virt. eigenvalues --    0.30825   0.31422   0.31526   0.31725   0.32194
 Alpha virt. eigenvalues --    0.32403   0.32682   0.32781   0.33070   0.33276
 Alpha virt. eigenvalues --    0.33372   0.33568   0.33732   0.33861   0.34318
 Alpha virt. eigenvalues --    0.34586   0.34730   0.34903   0.35229   0.35396
 Alpha virt. eigenvalues --    0.35554   0.35745   0.36064   0.36391   0.36473
 Alpha virt. eigenvalues --    0.36788   0.36874   0.37096   0.37302   0.37340
 Alpha virt. eigenvalues --    0.37515   0.37882   0.38071   0.38119   0.38297
 Alpha virt. eigenvalues --    0.38538   0.38711   0.39034   0.39228   0.39341
 Alpha virt. eigenvalues --    0.39514   0.39766   0.40063   0.40335   0.40433
 Alpha virt. eigenvalues --    0.40791   0.40840   0.41107   0.41247   0.41302
 Alpha virt. eigenvalues --    0.41396   0.41558   0.41737   0.42129   0.42232
 Alpha virt. eigenvalues --    0.42418   0.42681   0.42806   0.42976   0.43218
 Alpha virt. eigenvalues --    0.43371   0.43592   0.43846   0.44078   0.44164
 Alpha virt. eigenvalues --    0.44340   0.44666   0.44802   0.44918   0.45077
 Alpha virt. eigenvalues --    0.45146   0.45315   0.45396   0.45588   0.45717
 Alpha virt. eigenvalues --    0.45894   0.45981   0.46385   0.46512   0.46684
 Alpha virt. eigenvalues --    0.46898   0.47067   0.47248   0.47304   0.47485
 Alpha virt. eigenvalues --    0.47714   0.47728   0.47953   0.48026   0.48155
 Alpha virt. eigenvalues --    0.48319   0.48505   0.48561   0.48874   0.49189
 Alpha virt. eigenvalues --    0.49254   0.49409   0.49504   0.49557   0.49903
 Alpha virt. eigenvalues --    0.50099   0.50202   0.50429   0.50470   0.50647
 Alpha virt. eigenvalues --    0.50956   0.51050   0.51198   0.51286   0.51523
 Alpha virt. eigenvalues --    0.51634   0.52048   0.52202   0.52243   0.52565
 Alpha virt. eigenvalues --    0.52744   0.53002   0.53116   0.53324   0.53517
 Alpha virt. eigenvalues --    0.53685   0.53699   0.53891   0.54228   0.54393
 Alpha virt. eigenvalues --    0.54421   0.54642   0.54731   0.55260   0.55418
 Alpha virt. eigenvalues --    0.55583   0.55830   0.56095   0.56179   0.56453
 Alpha virt. eigenvalues --    0.56495   0.56634   0.56876   0.56936   0.57292
 Alpha virt. eigenvalues --    0.57480   0.58052   0.58272   0.58397   0.58494
 Alpha virt. eigenvalues --    0.58689   0.58879   0.58948   0.59685   0.60006
 Alpha virt. eigenvalues --    0.60080   0.60270   0.60442   0.60623   0.61040
 Alpha virt. eigenvalues --    0.61251   0.61496   0.61876   0.61918   0.62252
 Alpha virt. eigenvalues --    0.62396   0.62536   0.62992   0.63080   0.63324
 Alpha virt. eigenvalues --    0.63611   0.63959   0.64219   0.64276   0.65085
 Alpha virt. eigenvalues --    0.65198   0.65240   0.65452   0.65810   0.66004
 Alpha virt. eigenvalues --    0.66334   0.66684   0.66856   0.67235   0.67511
 Alpha virt. eigenvalues --    0.67962   0.68203   0.68414   0.68572   0.68989
 Alpha virt. eigenvalues --    0.69047   0.69585   0.69852   0.69929   0.70222
 Alpha virt. eigenvalues --    0.70333   0.70752   0.71062   0.71259   0.71289
 Alpha virt. eigenvalues --    0.71595   0.72061   0.72247   0.72378   0.72647
 Alpha virt. eigenvalues --    0.72760   0.73544   0.74126   0.74290   0.74448
 Alpha virt. eigenvalues --    0.74776   0.75132   0.75299   0.75633   0.75738
 Alpha virt. eigenvalues --    0.76280   0.76463   0.76876   0.77257   0.77414
 Alpha virt. eigenvalues --    0.77593   0.77809   0.78262   0.78454   0.78529
 Alpha virt. eigenvalues --    0.78793   0.78903   0.79186   0.79347   0.79642
 Alpha virt. eigenvalues --    0.79911   0.80525   0.80763   0.80854   0.81215
 Alpha virt. eigenvalues --    0.81663   0.81683   0.81998   0.82266   0.82407
 Alpha virt. eigenvalues --    0.82718   0.82965   0.83080   0.83834   0.84045
 Alpha virt. eigenvalues --    0.84221   0.84631   0.85008   0.85169   0.85442
 Alpha virt. eigenvalues --    0.85698   0.86026   0.86257   0.86679   0.86925
 Alpha virt. eigenvalues --    0.87297   0.87690   0.88210   0.88340   0.88437
 Alpha virt. eigenvalues --    0.88615   0.88990   0.89361   0.89659   0.89981
 Alpha virt. eigenvalues --    0.90161   0.90392   0.90909   0.91148   0.91248
 Alpha virt. eigenvalues --    0.91792   0.91821   0.92100   0.92285   0.92616
 Alpha virt. eigenvalues --    0.93054   0.93286   0.93469   0.94141   0.94293
 Alpha virt. eigenvalues --    0.94420   0.94492   0.95235   0.95359   0.95651
 Alpha virt. eigenvalues --    0.95925   0.95996   0.96294   0.96578   0.96654
 Alpha virt. eigenvalues --    0.97163   0.97607   0.97717   0.97890   0.98141
 Alpha virt. eigenvalues --    0.98258   0.98437   0.98644   0.99075   0.99360
 Alpha virt. eigenvalues --    0.99855   1.00041   1.00412   1.00661   1.00840
 Alpha virt. eigenvalues --    1.00852   1.01255   1.01418   1.01752   1.01965
 Alpha virt. eigenvalues --    1.02257   1.02381   1.02480   1.03001   1.03112
 Alpha virt. eigenvalues --    1.03339   1.03775   1.03946   1.04361   1.04559
 Alpha virt. eigenvalues --    1.04886   1.05138   1.05329   1.05462   1.06122
 Alpha virt. eigenvalues --    1.06133   1.06410   1.06652   1.07045   1.07316
 Alpha virt. eigenvalues --    1.07606   1.07961   1.07982   1.08248   1.08789
 Alpha virt. eigenvalues --    1.08886   1.09240   1.09781   1.09904   1.10361
 Alpha virt. eigenvalues --    1.10519   1.10688   1.11093   1.11272   1.11677
 Alpha virt. eigenvalues --    1.11859   1.12185   1.12382   1.12798   1.13167
 Alpha virt. eigenvalues --    1.13288   1.13765   1.13881   1.14188   1.14222
 Alpha virt. eigenvalues --    1.14790   1.15119   1.15425   1.16106   1.16537
 Alpha virt. eigenvalues --    1.16722   1.16916   1.17101   1.17842   1.18492
 Alpha virt. eigenvalues --    1.18729   1.18834   1.19126   1.19234   1.19490
 Alpha virt. eigenvalues --    1.20103   1.20284   1.21023   1.21391   1.21761
 Alpha virt. eigenvalues --    1.22238   1.22497   1.22732   1.22976   1.23072
 Alpha virt. eigenvalues --    1.23582   1.24249   1.24511   1.24940   1.25050
 Alpha virt. eigenvalues --    1.25727   1.25984   1.26376   1.26538   1.26923
 Alpha virt. eigenvalues --    1.27387   1.27714   1.28078   1.28649   1.29090
 Alpha virt. eigenvalues --    1.29292   1.29862   1.30118   1.30363   1.30437
 Alpha virt. eigenvalues --    1.30702   1.31248   1.31584   1.31747   1.32088
 Alpha virt. eigenvalues --    1.32501   1.32876   1.33043   1.33571   1.33795
 Alpha virt. eigenvalues --    1.34226   1.34300   1.34675   1.34962   1.35466
 Alpha virt. eigenvalues --    1.35696   1.36299   1.36691   1.36845   1.37386
 Alpha virt. eigenvalues --    1.37735   1.38294   1.38499   1.39011   1.39426
 Alpha virt. eigenvalues --    1.39513   1.39824   1.40171   1.40400   1.40997
 Alpha virt. eigenvalues --    1.41163   1.41731   1.42328   1.42785   1.43269
 Alpha virt. eigenvalues --    1.43424   1.44271   1.45050   1.45477   1.45867
 Alpha virt. eigenvalues --    1.46180   1.46393   1.46639   1.47452   1.48026
 Alpha virt. eigenvalues --    1.48092   1.48493   1.48675   1.49066   1.49430
 Alpha virt. eigenvalues --    1.49640   1.49886   1.50198   1.50453   1.51014
 Alpha virt. eigenvalues --    1.51192   1.51700   1.51908   1.51987   1.52631
 Alpha virt. eigenvalues --    1.52715   1.52970   1.53100   1.53255   1.53580
 Alpha virt. eigenvalues --    1.53868   1.54049   1.54435   1.54583   1.54795
 Alpha virt. eigenvalues --    1.55097   1.55393   1.55427   1.55836   1.55998
 Alpha virt. eigenvalues --    1.56239   1.56473   1.56914   1.56962   1.56987
 Alpha virt. eigenvalues --    1.57248   1.57570   1.57767   1.57972   1.58197
 Alpha virt. eigenvalues --    1.58403   1.58657   1.58867   1.59123   1.59366
 Alpha virt. eigenvalues --    1.59644   1.60003   1.60146   1.60435   1.60776
 Alpha virt. eigenvalues --    1.60963   1.61127   1.61421   1.61768   1.62030
 Alpha virt. eigenvalues --    1.62181   1.62533   1.62717   1.63042   1.63119
 Alpha virt. eigenvalues --    1.63265   1.63764   1.64061   1.64241   1.64528
 Alpha virt. eigenvalues --    1.64750   1.65283   1.65347   1.65516   1.65885
 Alpha virt. eigenvalues --    1.66002   1.66544   1.66642   1.66926   1.67109
 Alpha virt. eigenvalues --    1.67484   1.67582   1.67940   1.68054   1.68308
 Alpha virt. eigenvalues --    1.68722   1.69153   1.69416   1.69715   1.69887
 Alpha virt. eigenvalues --    1.70333   1.70598   1.70940   1.71389   1.71437
 Alpha virt. eigenvalues --    1.71724   1.72025   1.72114   1.72702   1.72825
 Alpha virt. eigenvalues --    1.73272   1.73441   1.73941   1.74036   1.74274
 Alpha virt. eigenvalues --    1.74606   1.74730   1.75376   1.75580   1.75841
 Alpha virt. eigenvalues --    1.76081   1.76265   1.76609   1.76763   1.77270
 Alpha virt. eigenvalues --    1.77399   1.77554   1.78542   1.78671   1.78738
 Alpha virt. eigenvalues --    1.79334   1.79672   1.79990   1.80432   1.80901
 Alpha virt. eigenvalues --    1.81000   1.81240   1.81927   1.81939   1.82448
 Alpha virt. eigenvalues --    1.82754   1.82993   1.83334   1.83865   1.84057
 Alpha virt. eigenvalues --    1.84547   1.84648   1.85584   1.85756   1.86209
 Alpha virt. eigenvalues --    1.86412   1.86937   1.87423   1.87639   1.87853
 Alpha virt. eigenvalues --    1.88078   1.88356   1.88517   1.88918   1.89388
 Alpha virt. eigenvalues --    1.89804   1.90089   1.90614   1.91007   1.91383
 Alpha virt. eigenvalues --    1.91718   1.92069   1.92416   1.92707   1.92977
 Alpha virt. eigenvalues --    1.93296   1.93626   1.93773   1.93887   1.94259
 Alpha virt. eigenvalues --    1.94742   1.94987   1.95292   1.95574   1.95952
 Alpha virt. eigenvalues --    1.96123   1.96378   1.96754   1.97158   1.97502
 Alpha virt. eigenvalues --    1.97556   1.97943   1.98475   1.98988   1.99240
 Alpha virt. eigenvalues --    1.99307   1.99583   2.00493   2.00529   2.00595
 Alpha virt. eigenvalues --    2.00973   2.01361   2.01797   2.01843   2.02142
 Alpha virt. eigenvalues --    2.02536   2.02946   2.03007   2.03393   2.03828
 Alpha virt. eigenvalues --    2.04258   2.04893   2.05320   2.05963   2.06170
 Alpha virt. eigenvalues --    2.06279   2.07052   2.07293   2.07720   2.08012
 Alpha virt. eigenvalues --    2.08485   2.08749   2.09270   2.09576   2.10061
 Alpha virt. eigenvalues --    2.10873   2.10980   2.11193   2.11518   2.11736
 Alpha virt. eigenvalues --    2.12121   2.12283   2.12635   2.12890   2.13398
 Alpha virt. eigenvalues --    2.13668   2.14019   2.14337   2.14761   2.15069
 Alpha virt. eigenvalues --    2.15400   2.15563   2.15722   2.16068   2.16512
 Alpha virt. eigenvalues --    2.16878   2.17022   2.17079   2.17362   2.17851
 Alpha virt. eigenvalues --    2.18284   2.18362   2.18584   2.18949   2.19373
 Alpha virt. eigenvalues --    2.19589   2.19831   2.19973   2.20322   2.20737
 Alpha virt. eigenvalues --    2.20860   2.21269   2.21517   2.21783   2.22221
 Alpha virt. eigenvalues --    2.22486   2.22947   2.23016   2.23555   2.23869
 Alpha virt. eigenvalues --    2.24118   2.24545   2.24798   2.25374   2.25866
 Alpha virt. eigenvalues --    2.26048   2.26658   2.26774   2.27088   2.27516
 Alpha virt. eigenvalues --    2.27860   2.28103   2.28757   2.29007   2.29624
 Alpha virt. eigenvalues --    2.29750   2.30031   2.30324   2.30646   2.31072
 Alpha virt. eigenvalues --    2.31908   2.32063   2.32188   2.32493   2.32822
 Alpha virt. eigenvalues --    2.33129   2.33501   2.33847   2.34168   2.34445
 Alpha virt. eigenvalues --    2.34640   2.34842   2.35084   2.35355   2.36164
 Alpha virt. eigenvalues --    2.36550   2.36833   2.37306   2.37358   2.37708
 Alpha virt. eigenvalues --    2.38036   2.38526   2.38703   2.38936   2.39485
 Alpha virt. eigenvalues --    2.39673   2.40028   2.40176   2.40389   2.40962
 Alpha virt. eigenvalues --    2.41172   2.41558   2.41631   2.42189   2.42746
 Alpha virt. eigenvalues --    2.43291   2.43575   2.44031   2.44309   2.44783
 Alpha virt. eigenvalues --    2.45044   2.45956   2.46137   2.46322   2.46994
 Alpha virt. eigenvalues --    2.47248   2.47537   2.47791   2.48542   2.48815
 Alpha virt. eigenvalues --    2.49058   2.49626   2.49766   2.50351   2.50718
 Alpha virt. eigenvalues --    2.51430   2.51592   2.51952   2.52277   2.52764
 Alpha virt. eigenvalues --    2.52862   2.53075   2.53501   2.53992   2.54225
 Alpha virt. eigenvalues --    2.54350   2.54676   2.55014   2.55190   2.55335
 Alpha virt. eigenvalues --    2.55748   2.56220   2.56403   2.56693   2.56862
 Alpha virt. eigenvalues --    2.57522   2.57666   2.57909   2.58213   2.58509
 Alpha virt. eigenvalues --    2.59011   2.59127   2.59479   2.59772   2.60059
 Alpha virt. eigenvalues --    2.60147   2.60333   2.60624   2.61089   2.61225
 Alpha virt. eigenvalues --    2.61700   2.62256   2.62398   2.62652   2.63275
 Alpha virt. eigenvalues --    2.63544   2.63611   2.64358   2.64785   2.64992
 Alpha virt. eigenvalues --    2.65248   2.65511   2.65897   2.66162   2.66456
 Alpha virt. eigenvalues --    2.66740   2.67039   2.67395   2.67507   2.67850
 Alpha virt. eigenvalues --    2.68106   2.68643   2.68865   2.69086   2.69314
 Alpha virt. eigenvalues --    2.69479   2.69790   2.70536   2.70933   2.71149
 Alpha virt. eigenvalues --    2.71605   2.71996   2.72222   2.72505   2.72722
 Alpha virt. eigenvalues --    2.73199   2.73546   2.73736   2.73982   2.74337
 Alpha virt. eigenvalues --    2.75029   2.75186   2.75678   2.76009   2.76168
 Alpha virt. eigenvalues --    2.76273   2.77064   2.77414   2.77686   2.77789
 Alpha virt. eigenvalues --    2.77930   2.78464   2.78640   2.78860   2.79098
 Alpha virt. eigenvalues --    2.79345   2.79510   2.80132   2.80254   2.80566
 Alpha virt. eigenvalues --    2.80627   2.81230   2.81492   2.81786   2.82247
 Alpha virt. eigenvalues --    2.82484   2.82737   2.82775   2.83225   2.83640
 Alpha virt. eigenvalues --    2.83876   2.84102   2.84431   2.85067   2.85700
 Alpha virt. eigenvalues --    2.86062   2.86240   2.86577   2.86688   2.87159
 Alpha virt. eigenvalues --    2.87552   2.88007   2.88141   2.88452   2.88600
 Alpha virt. eigenvalues --    2.89057   2.89147   2.89456   2.90118   2.90380
 Alpha virt. eigenvalues --    2.90705   2.91181   2.91397   2.91713   2.92223
 Alpha virt. eigenvalues --    2.92561   2.92652   2.93045   2.93312   2.93606
 Alpha virt. eigenvalues --    2.93931   2.94280   2.94530   2.95358   2.95600
 Alpha virt. eigenvalues --    2.95715   2.96187   2.96792   2.97123   2.97388
 Alpha virt. eigenvalues --    2.97877   2.98032   2.98342   2.98653   2.99071
 Alpha virt. eigenvalues --    2.99335   2.99522   2.99737   3.00002   3.00646
 Alpha virt. eigenvalues --    3.00657   3.01061   3.01481   3.01515   3.01530
 Alpha virt. eigenvalues --    3.02191   3.02454   3.02544   3.02806   3.03501
 Alpha virt. eigenvalues --    3.03696   3.03938   3.04293   3.04573   3.04738
 Alpha virt. eigenvalues --    3.05174   3.05482   3.06088   3.06478   3.06642
 Alpha virt. eigenvalues --    3.06858   3.07186   3.07729   3.07908   3.08088
 Alpha virt. eigenvalues --    3.08257   3.08639   3.09008   3.09126   3.09216
 Alpha virt. eigenvalues --    3.09813   3.09894   3.10208   3.10691   3.10871
 Alpha virt. eigenvalues --    3.11072   3.11436   3.11778   3.11966   3.12139
 Alpha virt. eigenvalues --    3.12436   3.12653   3.13165   3.13244   3.13542
 Alpha virt. eigenvalues --    3.13733   3.14028   3.14480   3.14621   3.14780
 Alpha virt. eigenvalues --    3.14886   3.15216   3.15336   3.15538   3.15798
 Alpha virt. eigenvalues --    3.16162   3.16259   3.16549   3.16691   3.17032
 Alpha virt. eigenvalues --    3.17428   3.17770   3.18062   3.18152   3.18381
 Alpha virt. eigenvalues --    3.18783   3.19261   3.19355   3.19708   3.20105
 Alpha virt. eigenvalues --    3.20339   3.20733   3.20888   3.21014   3.21101
 Alpha virt. eigenvalues --    3.21510   3.21659   3.22087   3.22328   3.22492
 Alpha virt. eigenvalues --    3.22749   3.22840   3.23269   3.23801   3.24031
 Alpha virt. eigenvalues --    3.24232   3.24393   3.24598   3.24822   3.25044
 Alpha virt. eigenvalues --    3.25317   3.25724   3.25902   3.25961   3.26271
 Alpha virt. eigenvalues --    3.26681   3.26879   3.27246   3.27475   3.27684
 Alpha virt. eigenvalues --    3.27834   3.28271   3.28454   3.28691   3.29178
 Alpha virt. eigenvalues --    3.29472   3.29644   3.29755   3.29970   3.30199
 Alpha virt. eigenvalues --    3.30385   3.30576   3.31076   3.31547   3.31724
 Alpha virt. eigenvalues --    3.31799   3.31960   3.32359   3.32675   3.33090
 Alpha virt. eigenvalues --    3.33289   3.33426   3.33641   3.33930   3.34444
 Alpha virt. eigenvalues --    3.34620   3.34923   3.35102   3.35335   3.35556
 Alpha virt. eigenvalues --    3.35765   3.35920   3.36232   3.36414   3.36560
 Alpha virt. eigenvalues --    3.36877   3.37161   3.37478   3.37736   3.37947
 Alpha virt. eigenvalues --    3.38307   3.38379   3.38796   3.39061   3.39219
 Alpha virt. eigenvalues --    3.39423   3.39543   3.39915   3.40182   3.40649
 Alpha virt. eigenvalues --    3.40722   3.41124   3.41363   3.41532   3.41571
 Alpha virt. eigenvalues --    3.41689   3.42475   3.42596   3.42762   3.43330
 Alpha virt. eigenvalues --    3.43474   3.43775   3.43887   3.44393   3.44541
 Alpha virt. eigenvalues --    3.44950   3.45344   3.45513   3.45546   3.45880
 Alpha virt. eigenvalues --    3.46063   3.46438   3.46731   3.46894   3.47182
 Alpha virt. eigenvalues --    3.47439   3.47549   3.48131   3.48386   3.48690
 Alpha virt. eigenvalues --    3.49063   3.49367   3.49738   3.49963   3.50058
 Alpha virt. eigenvalues --    3.50425   3.50577   3.50764   3.51303   3.51608
 Alpha virt. eigenvalues --    3.51649   3.52108   3.52504   3.52785   3.53289
 Alpha virt. eigenvalues --    3.53559   3.53988   3.54111   3.54435   3.54877
 Alpha virt. eigenvalues --    3.55396   3.55967   3.56161   3.56239   3.56751
 Alpha virt. eigenvalues --    3.56941   3.57170   3.57517   3.57884   3.58272
 Alpha virt. eigenvalues --    3.58840   3.58956   3.59589   3.59690   3.59885
 Alpha virt. eigenvalues --    3.60413   3.60669   3.60739   3.61220   3.61477
 Alpha virt. eigenvalues --    3.61741   3.61990   3.62531   3.62733   3.63040
 Alpha virt. eigenvalues --    3.63283   3.63632   3.63947   3.64384   3.64980
 Alpha virt. eigenvalues --    3.65172   3.65359   3.66018   3.66169   3.66610
 Alpha virt. eigenvalues --    3.66954   3.67713   3.67963   3.68018   3.68373
 Alpha virt. eigenvalues --    3.68514   3.68729   3.69057   3.69349   3.69903
 Alpha virt. eigenvalues --    3.70479   3.70496   3.71146   3.71265   3.71531
 Alpha virt. eigenvalues --    3.71968   3.72650   3.73040   3.73337   3.73661
 Alpha virt. eigenvalues --    3.73936   3.74021   3.74276   3.74849   3.75259
 Alpha virt. eigenvalues --    3.75462   3.75763   3.76141   3.76667   3.77029
 Alpha virt. eigenvalues --    3.77409   3.77714   3.78117   3.78253   3.78586
 Alpha virt. eigenvalues --    3.78874   3.79467   3.79791   3.80423   3.80780
 Alpha virt. eigenvalues --    3.81282   3.81503   3.81849   3.82347   3.82622
 Alpha virt. eigenvalues --    3.83378   3.83947   3.84261   3.85256   3.85642
 Alpha virt. eigenvalues --    3.86118   3.86660   3.86991   3.87671   3.87730
 Alpha virt. eigenvalues --    3.88226   3.88452   3.88954   3.89486   3.89741
 Alpha virt. eigenvalues --    3.90131   3.90508   3.90844   3.91165   3.92049
 Alpha virt. eigenvalues --    3.92288   3.92537   3.93523   3.93765   3.94318
 Alpha virt. eigenvalues --    3.94620   3.95137   3.96092   3.96246   3.96521
 Alpha virt. eigenvalues --    3.96926   3.97154   3.97593   3.97847   3.98370
 Alpha virt. eigenvalues --    3.99046   3.99582   3.99689   3.99991   4.00669
 Alpha virt. eigenvalues --    4.00907   4.01776   4.02221   4.02418   4.03298
 Alpha virt. eigenvalues --    4.03683   4.03866   4.04778   4.05125   4.05777
 Alpha virt. eigenvalues --    4.06402   4.06703   4.07017   4.07268   4.07975
 Alpha virt. eigenvalues --    4.08224   4.09274   4.09620   4.10216   4.11096
 Alpha virt. eigenvalues --    4.11916   4.12591   4.13005   4.13370   4.14502
 Alpha virt. eigenvalues --    4.15297   4.15859   4.16021   4.16576   4.17019
 Alpha virt. eigenvalues --    4.17805   4.18282   4.18757   4.19736   4.19806
 Alpha virt. eigenvalues --    4.20444   4.20882   4.21349   4.21503   4.21715
 Alpha virt. eigenvalues --    4.22646   4.22868   4.23163   4.23494   4.24453
 Alpha virt. eigenvalues --    4.24576   4.25015   4.25619   4.25975   4.26532
 Alpha virt. eigenvalues --    4.26940   4.27151   4.28030   4.28786   4.29061
 Alpha virt. eigenvalues --    4.29711   4.30065   4.30744   4.31036   4.31186
 Alpha virt. eigenvalues --    4.31884   4.32049   4.32424   4.32830   4.33588
 Alpha virt. eigenvalues --    4.34125   4.34246   4.35199   4.35682   4.35923
 Alpha virt. eigenvalues --    4.36763   4.37317   4.37635   4.38123   4.38643
 Alpha virt. eigenvalues --    4.39042   4.39358   4.39776   4.39936   4.40496
 Alpha virt. eigenvalues --    4.40799   4.41541   4.42057   4.42484   4.42911
 Alpha virt. eigenvalues --    4.43386   4.44009   4.44630   4.44854   4.45075
 Alpha virt. eigenvalues --    4.45529   4.46569   4.46591   4.47261   4.48053
 Alpha virt. eigenvalues --    4.48443   4.48824   4.48997   4.49761   4.50287
 Alpha virt. eigenvalues --    4.51167   4.51895   4.52214   4.53369   4.53800
 Alpha virt. eigenvalues --    4.54310   4.54939   4.54990   4.55825   4.56085
 Alpha virt. eigenvalues --    4.56912   4.57533   4.58081   4.58464   4.58703
 Alpha virt. eigenvalues --    4.59274   4.60173   4.61061   4.61281   4.62493
 Alpha virt. eigenvalues --    4.62948   4.64107   4.64570   4.65107   4.66247
 Alpha virt. eigenvalues --    4.66584   4.67014   4.67503   4.68649   4.69408
 Alpha virt. eigenvalues --    4.69517   4.69881   4.70540   4.71294   4.72370
 Alpha virt. eigenvalues --    4.72695   4.73485   4.74170   4.74409   4.74830
 Alpha virt. eigenvalues --    4.75247   4.75867   4.76525   4.77033   4.77511
 Alpha virt. eigenvalues --    4.78419   4.79004   4.79553   4.79658   4.80005
 Alpha virt. eigenvalues --    4.81520   4.82414   4.83051   4.83723   4.85067
 Alpha virt. eigenvalues --    4.85201   4.85920   4.86548   4.86867   4.87335
 Alpha virt. eigenvalues --    4.88517   4.88804   4.90034   4.90580   4.91907
 Alpha virt. eigenvalues --    4.92694   4.93101   4.93724   4.94195   4.94806
 Alpha virt. eigenvalues --    4.95423   4.96353   4.96907   4.97433   4.97786
 Alpha virt. eigenvalues --    4.98624   4.99373   4.99705   5.00968   5.01835
 Alpha virt. eigenvalues --    5.02680   5.03291   5.03321   5.03837   5.05031
 Alpha virt. eigenvalues --    5.05818   5.06278   5.06634   5.08434   5.09473
 Alpha virt. eigenvalues --    5.09686   5.11000   5.11494   5.13154   5.14213
 Alpha virt. eigenvalues --    5.15148   5.17474   5.18278   5.19068   5.19593
 Alpha virt. eigenvalues --    5.19770   5.20169   5.20774   5.21177   5.21590
 Alpha virt. eigenvalues --    5.21828   5.22583   5.22785   5.23723   5.24646
 Alpha virt. eigenvalues --    5.25491   5.25969   5.26911   5.27611   5.28635
 Alpha virt. eigenvalues --    5.29503   5.30664   5.33189   5.34408   5.34574
 Alpha virt. eigenvalues --    5.35791   5.37260   5.37824   5.38492   5.39211
 Alpha virt. eigenvalues --    5.39777   5.41771   5.41958   5.43526   5.44099
 Alpha virt. eigenvalues --    5.45248   5.47070   5.47526   5.48199   5.48581
 Alpha virt. eigenvalues --    5.49370   5.51318   5.51903   5.52659   5.53865
 Alpha virt. eigenvalues --    5.54418   5.57535   5.58335   5.59168   5.60474
 Alpha virt. eigenvalues --    5.60746   5.61512   5.62512   5.63452   5.63625
 Alpha virt. eigenvalues --    5.63929   5.65610   5.66665   5.67381   5.69281
 Alpha virt. eigenvalues --    5.71236   5.73097   5.76252   5.76936   5.78001
 Alpha virt. eigenvalues --    5.79116   5.80274   5.83101   5.85620   5.88204
 Alpha virt. eigenvalues --    5.88743   5.92704   5.95134   5.97472   5.98166
 Alpha virt. eigenvalues --    5.98475   5.99733   6.00754   6.01924   6.03054
 Alpha virt. eigenvalues --    6.04026   6.05217   6.08714   6.11713   6.13095
 Alpha virt. eigenvalues --    6.14420   6.14737   6.15409   6.17769   6.19511
 Alpha virt. eigenvalues --    6.21949   6.22624   6.28721   6.30442   6.31379
 Alpha virt. eigenvalues --    6.32777   6.35592   6.36282   6.41138   6.44237
 Alpha virt. eigenvalues --    6.44554   6.45985   6.48030   6.51425   6.52118
 Alpha virt. eigenvalues --    6.65468   6.66044   6.71626   6.75795   6.83886
 Alpha virt. eigenvalues --    6.84638   6.91875   6.92721   6.95662   7.01632
 Alpha virt. eigenvalues --    7.09662   7.10804   7.16115   7.16774   7.23996
 Alpha virt. eigenvalues --    7.24038   9.34424   9.55547   9.66435  20.29678
 Alpha virt. eigenvalues --   22.42468  22.43186  22.49816  22.51881  22.54341
 Alpha virt. eigenvalues --   22.54534  22.55410  22.57022  22.57259  22.58286
 Alpha virt. eigenvalues --   22.62278  22.63825  22.68240  22.71092  22.74955
 Alpha virt. eigenvalues --   22.77183  22.85024  22.92492  22.93219  22.95495
 Alpha virt. eigenvalues --   22.97077  23.00748  23.05694  23.10086  23.16230
 Alpha virt. eigenvalues --   23.17443  23.24211  23.28615  23.32365  23.35528
 Alpha virt. eigenvalues --   23.40965  23.43026  23.44072  23.46472  23.48952
 Alpha virt. eigenvalues --   23.51835  23.56407  23.72014  23.76174  23.79214
 Alpha virt. eigenvalues --   23.88095  32.47101  32.87705  32.99235  33.05696
 Alpha virt. eigenvalues --   33.15344  33.20089  43.92129  43.93786  43.95722
 Alpha virt. eigenvalues --   43.98106
          Condensed to atoms (all electrons):
 Mulliken charges:
               1
     1  C   -0.364663
     2  C    0.146867
     3  N   -0.214542
     4  C   -0.209202
     5  C   -0.006231
     6  N    0.086429
     7  C   -0.380663
     8  C   -0.119070
     9  S    0.034363
    10  C   -0.375185
    11  Fe  -0.494774
    12  C   -0.571577
    13  C   -0.576566
    14  C   -0.550119
    15  C   -0.498547
    16  N    0.006191
    17  C    0.306594
    18  C    0.078245
    19  C   -0.114256
    20  C    0.343971
    21  C   -0.407476
    22  C   -0.335820
    23  C   -0.258282
    24  C    0.313438
    25  O   -0.309743
    26  O   -0.370851
    27  N   -0.033316
    28  C    0.309426
    29  C   -0.196526
    30  C    0.019616
    31  C    0.139369
    32  C   -0.604147
    33  C   -0.357898
    34  C   -0.285555
    35  N    0.068469
    36  C    0.337311
    37  C   -0.109384
    38  C    0.018501
    39  C    0.172394
    40  C   -0.345604
    41  C   -0.260586
    42  C   -0.288074
    43  N    0.037390
    44  C    0.316076
    45  C   -0.133700
    46  C    0.066151
    47  C    0.164372
    48  C   -0.390891
    49  C   -0.200634
    50  C   -0.255440
    51  C    0.314290
    52  O   -0.322221
    53  O   -0.368650
    54  H    0.116033
    55  H    0.154318
    56  H    0.147629
    57  H    0.148112
    58  H    0.172384
    59  H    0.122366
    60  H    0.122732
    61  H    0.131998
    62  H    0.131336
    63  H    0.125951
    64  H    0.157796
    65  H    0.147354
    66  H    0.142282
    67  H    0.091319
    68  H    0.151206
    69  H    0.104075
    70  H    0.083799
    71  H    0.146515
    72  H    0.121069
    73  H    0.146269
    74  H    0.129004
    75  H    0.117294
    76  H    0.133806
    77  H    0.129953
    78  H    0.211207
    79  H    0.230396
    80  H    0.249267
    81  H    0.116649
    82  H    0.106312
    83  H    0.133341
    84  H    0.133481
    85  H    0.125997
    86  H    0.110191
    87  H    0.119967
    88  H    0.108297
    89  H    0.135727
    90  H    0.145364
    91  H    0.125349
    92  H    0.123360
    93  H    0.114938
    94  H    0.107628
    95  H    0.124239
    96  H    0.126906
    97  H    0.231842
    98  H    0.348838
    99  H    0.343681
   100  H    0.141775
   101  H    0.141379
 Sum of Mulliken charges =  -0.00000
 Mulliken charges with hydrogens summed into heavy atoms:
               1
     1  C    0.053317
     2  C    0.146867
     3  N    0.017299
     4  C   -0.061091
     5  C    0.166153
     6  N    0.086429
     7  C   -0.003566
     8  C    0.138217
     9  S    0.034363
    10  C    0.072247
    11  Fe  -0.494774
    12  C   -0.480258
    13  C   -0.425360
    14  C   -0.446044
    15  C   -0.414747
    16  N    0.006191
    17  C    0.306594
    18  C    0.078245
    19  C   -0.114256
    20  C    0.343971
    21  C    0.006377
    22  C   -0.089521
    23  C    0.005478
    24  C    0.313438
    25  O    0.039095
    26  O   -0.370851
    27  N   -0.033316
    28  C    0.309426
    29  C   -0.196526
    30  C    0.019616
    31  C    0.139369
    32  C    0.086724
    33  C   -0.216519
    34  C    0.070747
    35  N    0.068469
    36  C    0.337311
    37  C   -0.109384
    38  C    0.018501
    39  C    0.172394
    40  C    0.024064
    41  C   -0.118811
    42  C    0.075917
    43  N    0.037390
    44  C    0.316076
    45  C   -0.133700
    46  C    0.066151
    47  C    0.164372
    48  C    0.003182
    49  C    0.021932
    50  C   -0.004294
    51  C    0.314290
    52  O   -0.322221
    53  O   -0.024969
 Electronic spatial extent (au):  <R**2>=          34387.9750
 Charge=             -0.0000 electrons
 Dipole moment (field-independent basis, Debye):
    X=              5.9396    Y=             -0.6184    Z=              2.9855  Tot=              6.6764
 Quadrupole moment (field-independent basis, Debye-Ang):
   XX=           -380.2502   YY=           -322.7617   ZZ=           -280.8581
   XY=             13.2739   XZ=             -7.9102   YZ=            -19.4839
 Traceless Quadrupole moment (field-independent basis, Debye-Ang):
   XX=            -52.2936   YY=              5.1950   ZZ=             47.0986
   XY=             13.2739   XZ=             -7.9102   YZ=            -19.4839
 Octapole moment (field-independent basis, Debye-Ang**2):
  XXX=            629.3663  YYY=             18.0443  ZZZ=             97.5904  XYY=             63.6438
  XXY=            -54.6066  XXZ=             -1.7832  XZZ=            -70.9016  YZZ=            -56.9935
  YYZ=             43.8039  XYZ=            127.0366
 Hexadecapole moment (field-independent basis, Debye-Ang**3):
 XXXX=         -29056.3762 YYYY=         -16157.5369 ZZZZ=          -4863.1743 XXXY=             91.3976
 XXXZ=              2.8853 YYYX=            824.8327 YYYZ=            -75.6293 ZZZX=            124.5613
 ZZZY=           -512.2851 XXYY=          -7615.6908 XXZZ=          -4478.0719 YYZZ=          -3329.1172
 XXYZ=           -540.1742 YYXZ=           -450.6326 ZZXY=              0.2034
 N-N= 8.962483502689D+03 E-N=-2.705108866624D+04  KE= 3.868537935841D+03
  Exact polarizability: 917.274 -68.2011034.760 -42.515 127.338 471.804
 Approx polarizability:2052.137********5724.056-447.3131447.7761122.189

 ----------------------------------------------------------------------

 Electric dipole moment (input orientation):
 (Debye = 10**-18 statcoulomb cm , SI units = C m)
                  (au)            (Debye)         (10**-30 SI)
   Tot        0.262669D+01      0.667639D+01      0.222700D+02
   x          0.166720D+01      0.423760D+01      0.141351D+02
   y         -0.866109D+00     -0.220143D+01     -0.734318D+01
   z          0.183571D+01      0.466590D+01      0.155638D+02

 Dipole polarizability, Alpha (input orientation).
 (esu units = cm**3 , SI units = C**2 m**2 J**-1)
 Alpha(0;0):
               (au)            (10**-24 esu)      (10**-40 SI)
   iso        0.807946D+03      0.119725D+03      0.133212D+03
   aniso      0.576718D+03      0.854609D+02      0.950880D+02
   xx         0.542355D+03      0.803687D+02      0.894223D+02
   yx         0.185547D+03      0.274953D+02      0.305926D+02
   yy         0.971298D+03      0.143931D+03      0.160145D+03
   zx         0.142832D+03      0.211655D+02      0.235497D+02
   zy         0.469238D+02      0.695340D+01      0.773670D+01
   zz         0.910185D+03      0.134876D+03      0.150069D+03

 First dipole hyperpolarizability, Beta (input orientation).
 ||, _|_  parallel and perpendicular components, (z) with respect to z axis,
 vector components x,y,z.  Values do not include the 1/n! factor of 1/2.
 (esu units = statvolt**-1 cm**4 , SI units = C**3 m**3 J**-2)
 Beta(0;0,0):
               (au)            (10**-30 esu)      (10**-50 SI)
   || (z)    -0.347667D+03     -0.300358D+01     -0.111475D+01
   _|_(z)    -0.115889D+03     -0.100119D+01     -0.371582D+00
   x         -0.258555D+04     -0.223372D+02     -0.829021D+01
   y         -0.849050D+04     -0.733513D+02     -0.272236D+02
   z         -0.173834D+04     -0.150179D+02     -0.557374D+01
   ||         0.180882D+04      0.156268D+02      0.579972D+01
   xxx       -0.815871D+02     -0.704849D+00     -0.261598D+00
   xxy       -0.538799D+03     -0.465480D+01     -0.172758D+01
   yxy       -0.545749D+03     -0.471485D+01     -0.174987D+01
   yyy       -0.999933D+03     -0.863864D+01     -0.320615D+01
   xxz       -0.470960D+03     -0.406872D+01     -0.151007D+01
   yxz       -0.101288D+04     -0.875054D+01     -0.324768D+01
   yyz       -0.156594D+04     -0.135285D+02     -0.502096D+01
   zxz       -0.234514D+03     -0.202602D+01     -0.751938D+00
   zyz       -0.129144D+04     -0.111570D+02     -0.414081D+01
   zzz        0.145745D+04      0.125912D+02      0.467311D+01

 ----------------------------------------------------------------------

 Dipole orientation:
     6         29.26711856          4.49986713         25.24977307
     6         27.84672226          4.41781706         22.78978797
     7         28.99581383          4.00266061         20.52760910
     6         25.39542673          4.85807411         22.22965131
     6         27.25028569          4.15102176         18.72629443
     7         24.97288277          4.66698787         19.67821884
     6         17.12960248          2.45588660         12.16771211
     6         16.52730542          3.94718157         14.59992540
    16         18.65957377          6.55044321         15.08378388
     6         16.69798752          8.76921090         16.60884048
    26         21.88322290          5.50135885         17.75748961
     6         24.92850020          4.81951096         11.91635908
     6         24.06945944         11.51245628         18.07776244
     6         18.38160216          6.32639024         22.94625878
     6         20.62902091         -0.79367618         17.74166458
     7         24.02473012          7.70184109         15.46808971
     6         24.95238196          7.18393264         13.07220536
     6         26.15815607          9.39655064         12.00931309
     6         25.98093329         11.25732521         13.76364386
     6         24.66950143         10.21324782         15.92061500
     6         26.89834483         13.96785694         13.59378797
     6         27.48115420          9.50315014          9.49937102
     6         30.28091121          8.78522330          9.82558522
     6         31.92401032          9.07668297          7.47858187
     8         34.20317527          8.47158720          7.73573011
     8         30.94785758          9.95718740          5.44111505
     7         21.33654454          8.45127187         20.09282027
     6         22.52947326         10.66404649         20.04570420
     6         21.73586685         12.12035317         22.16384550
     6         20.01191059         10.77913691         23.47795510
     6         19.82472479          8.34267522         22.14829655
     6         22.89479993         14.69654264         22.76885171
     6         18.41025953         11.53359553         25.62870777
     6         16.72456714         13.66089869         25.15179927
     7         19.82091504          3.22652554         19.80237992
     6         18.47415036          3.89247953         21.92894077
     6         17.30023550          1.73750219         23.05846801
     6         18.01552034         -0.32932977         21.67100609
     6         19.59218352          0.63321520         19.63385241
     6         15.80165902          1.70662649         25.50571674
     6         17.67292234         -3.08492140         22.25437982
     6         15.04349423         -3.95368027         22.82336542
     7         22.72474131          2.62418857         15.36628680
     6         21.98363511          0.09421597         15.67326615
     6         22.78986199         -1.40447813         13.55413787
     6         23.98953003          0.13433988         11.90588236
     6         23.89225060          2.67891502         13.02352204
     6         22.23470113         -4.21421046         13.24533539
     6         24.96288115         -0.53326035          9.30846595
     6         22.74454635         -0.40575975          7.46614598
     6         23.19513538         -1.36242910          4.83859475
     8         25.19806422         -2.37146751          4.17828363
     8         21.31345961         -1.12137332          3.27819797
     1         31.24896167          4.65257229         24.87897514
     1         28.65777064          6.09893904         26.32688785
     1         28.90527112          2.80647075         26.29379761
     1         23.97082768          5.29787979         23.59552122
     1         27.62541367          3.88904626         16.75673613
     1         15.49344884          2.41367834         10.98039081
     1         17.66111293          0.56561796         12.65030227
     1         18.65190581          3.35423182         11.18583606
     1         16.84160408          2.66971142         16.13543784
     1         14.69808372          4.76258536         14.32139940
     1         17.82868153          9.99428872         17.75305528
     1         15.71159716          9.86188142         15.22261637
     1         15.36300103          7.79825453         17.77655916
     1         25.75227086          4.64369259         10.07815290
     1         24.86007157         13.36305124         18.27459460
     1         17.08768182          6.65146868         24.46566862
     1         20.37070471         -2.79517431         17.86732320
     1         27.89504434         14.44936275         15.28590334
     1         28.13388343         14.16293334         12.00510875
     1         25.31321594         15.20318668         13.37054159
     1         27.44259859         11.43518636          8.90417221
     1         26.64568401          8.07161744          8.34126231
     1         30.28430297          6.80674731         10.24287810
     1         31.02169345         10.10297342         11.16845097
     1         22.56892764         14.02096505         24.64659352
     1         21.61856198         15.23537848         21.29596856
     1         22.10384523         16.36291654         23.59716375
     1         16.69280834         14.87181926         26.77080355
     1         17.38584110         14.69827873         23.54709633
     1         14.85821152         12.97346094         24.78757659
     1         16.98165029          1.04924075         27.01036844
     1         15.15519618          3.57632915         25.92381950
[...]
 Alpha virt. eigenvalues --    3.02723   3.02845   3.02993   3.03370   3.03985
 Alpha virt. eigenvalues --    3.04069   3.04322   3.04707   3.05008   3.05257
 Alpha virt. eigenvalues --    3.05616   3.05998   3.06483   3.06935   3.07039
 Alpha virt. eigenvalues --    3.07353   3.07670   3.08071   3.08404   3.08692
 Alpha virt. eigenvalues --    3.08866   3.09047   3.09380   3.09633   3.09685
 Alpha virt. eigenvalues --    3.10275   3.10449   3.10772   3.11049   3.11519
 Alpha virt. eigenvalues --    3.11689   3.11958   3.12172   3.12390   3.12688
 Alpha virt. eigenvalues --    3.12824   3.13083   3.13540   3.13646   3.13972
 Alpha virt. eigenvalues --    3.14133   3.14461   3.14969   3.15151   3.15358
 Alpha virt. eigenvalues --    3.15390   3.15687   3.15793   3.16004   3.16227
 Alpha virt. eigenvalues --    3.16652   3.16698   3.17028   3.17248   3.17713
 Alpha virt. eigenvalues --    3.17964   3.18171   3.18495   3.18587   3.18933
 Alpha virt. eigenvalues --    3.19424   3.19707   3.20014   3.20252   3.20583
 Alpha virt. eigenvalues --    3.20780   3.21076   3.21342   3.21522   3.21671
 Alpha virt. eigenvalues --    3.21913   3.22064   3.22481   3.22800   3.22856
 Alpha virt. eigenvalues --    3.23126   3.23278   3.23538   3.24182   3.24400
 Alpha virt. eigenvalues --    3.24702   3.24830   3.25012   3.25142   3.25505
 Alpha virt. eigenvalues --    3.25668   3.26184   3.26305   3.26408   3.26618
 Alpha virt. eigenvalues --    3.27061   3.27293   3.27681   3.28077   3.28103
 Alpha virt. eigenvalues --    3.28191   3.28797   3.28974   3.29156   3.29604
 Alpha virt. eigenvalues --    3.29920   3.30079   3.30267   3.30402   3.30590
 Alpha virt. eigenvalues --    3.31011   3.31060   3.31471   3.32025   3.32108
 Alpha virt. eigenvalues --    3.32240   3.32431   3.32754   3.33046   3.33627
 Alpha virt. eigenvalues --    3.33714   3.33902   3.34047   3.34406   3.34903
 Alpha virt. eigenvalues --    3.35105   3.35369   3.35509   3.35747   3.36027
 Alpha virt. eigenvalues --    3.36262   3.36412   3.36643   3.36866   3.37098
 Alpha virt. eigenvalues --    3.37335   3.37669   3.38015   3.38151   3.38379
 Alpha virt. eigenvalues --    3.38762   3.38869   3.39311   3.39500   3.39648
 Alpha virt. eigenvalues --    3.39942   3.40017   3.40424   3.40635   3.41017
 Alpha virt. eigenvalues --    3.41073   3.41549   3.41788   3.41897   3.41985
 Alpha virt. eigenvalues --    3.42177   3.42866   3.43046   3.43174   3.43738
 Alpha virt. eigenvalues --    3.43873   3.44207   3.44270   3.44785   3.44954
 Alpha virt. eigenvalues --    3.45323   3.45826   3.45946   3.46031   3.46396
 Alpha virt. eigenvalues --    3.46679   3.46911   3.47271   3.47311   3.47628
 Alpha virt. eigenvalues --    3.47858   3.47956   3.48561   3.48949   3.49062
 Alpha virt. eigenvalues --    3.49501   3.49992   3.50212   3.50398   3.50479
 Alpha virt. eigenvalues --    3.50885   3.50983   3.51229   3.51748   3.52003
 Alpha virt. eigenvalues --    3.52131   3.52462   3.52873   3.53160   3.53633
 Alpha virt. eigenvalues --    3.53881   3.54332   3.54529   3.54865   3.55347
 Alpha virt. eigenvalues --    3.55859   3.56276   3.56558   3.56597   3.57265
 Alpha virt. eigenvalues --    3.57430   3.57563   3.58009   3.58351   3.58649
 Alpha virt. eigenvalues --    3.59241   3.59310   3.60037   3.60115   3.60372
 Alpha virt. eigenvalues --    3.60936   3.61125   3.61219   3.61625   3.61983
 Alpha virt. eigenvalues --    3.62237   3.62604   3.63030   3.63143   3.63456
 Alpha virt. eigenvalues --    3.63587   3.64059   3.64242   3.64849   3.65391
 Alpha virt. eigenvalues --    3.65810   3.66031   3.66395   3.66594   3.67051
 Alpha virt. eigenvalues --    3.67362   3.68127   3.68269   3.68397   3.68776
 Alpha virt. eigenvalues --    3.68939   3.69148   3.69531   3.69859   3.70347
 Alpha virt. eigenvalues --    3.70905   3.71123   3.71615   3.71680   3.71844
 Alpha virt. eigenvalues --    3.72456   3.73110   3.73484   3.73734   3.74213
 Alpha virt. eigenvalues --    3.74326   3.74680   3.74876   3.75413   3.75687
 Alpha virt. eigenvalues --    3.75929   3.76391   3.76528   3.77187   3.77445
 Alpha virt. eigenvalues --    3.78089   3.78489   3.78599   3.78617   3.79063
 Alpha virt. eigenvalues --    3.79266   3.79806   3.80228   3.80820   3.81127
 Alpha virt. eigenvalues --    3.81647   3.81910   3.82297   3.82781   3.82949
 Alpha virt. eigenvalues --    3.83786   3.84408   3.84670   3.85919   3.86450
 Alpha virt. eigenvalues --    3.86547   3.87159   3.87453   3.88062   3.88207
 Alpha virt. eigenvalues --    3.88837   3.89177   3.89374   3.89862   3.90191
 Alpha virt. eigenvalues --    3.90799   3.91120   3.91226   3.91552   3.92542
 Alpha virt. eigenvalues --    3.92956   3.93328   3.94102   3.94236   3.94910
 Alpha virt. eigenvalues --    3.95124   3.95765   3.96593   3.96628   3.96952
 Alpha virt. eigenvalues --    3.97485   3.97689   3.98173   3.98405   3.98998
 Alpha virt. eigenvalues --    3.99593   3.99991   4.00188   4.00388   4.01064
 Alpha virt. eigenvalues --    4.01389   4.02195   4.02724   4.02855   4.03577
 Alpha virt. eigenvalues --    4.04083   4.04222   4.05107   4.05480   4.06109
 Alpha virt. eigenvalues --    4.06859   4.06993   4.07376   4.07658   4.08428
 Alpha virt. eigenvalues --    4.08591   4.09712   4.09929   4.10485   4.11499
 Alpha virt. eigenvalues --    4.12268   4.12948   4.13402   4.13752   4.14835
 Alpha virt. eigenvalues --    4.15596   4.16192   4.16315   4.16917   4.17362
 Alpha virt. eigenvalues --    4.18254   4.18676   4.19081   4.20040   4.20122
 Alpha virt. eigenvalues --    4.20735   4.21232   4.21656   4.21944   4.22061
 Alpha virt. eigenvalues --    4.22956   4.23237   4.23561   4.24224   4.24749
 Alpha virt. eigenvalues --    4.24970   4.25419   4.25879   4.26373   4.26801
 Alpha virt. eigenvalues --    4.27340   4.27625   4.28321   4.29109   4.29389
 Alpha virt. eigenvalues --    4.30097   4.30535   4.31107   4.31437   4.31977
 Alpha virt. eigenvalues --    4.32303   4.32469   4.32812   4.33336   4.33963
 Alpha virt. eigenvalues --    4.34484   4.34714   4.35701   4.35990   4.36357
 Alpha virt. eigenvalues --    4.37414   4.37608   4.38093   4.38905   4.39059
 Alpha virt. eigenvalues --    4.39693   4.39964   4.40100   4.40261   4.40937
 Alpha virt. eigenvalues --    4.41173   4.41945   4.42502   4.42877   4.43310
 Alpha virt. eigenvalues --    4.43890   4.44401   4.45299   4.45467   4.45590
 Alpha virt. eigenvalues --    4.46254   4.46921   4.47057   4.47710   4.48405
 Alpha virt. eigenvalues --    4.48806   4.49122   4.49892   4.50377   4.50633
 Alpha virt. eigenvalues --    4.51618   4.52330   4.52724   4.53710   4.54286
 Alpha virt. eigenvalues --    4.54741   4.55337   4.55484   4.56208   4.56611
 Alpha virt. eigenvalues --    4.57354   4.57983   4.58515   4.58903   4.59167
 Alpha virt. eigenvalues --    4.59857   4.60720   4.61524   4.61904   4.62961
 Alpha virt. eigenvalues --    4.63451   4.64503   4.65068   4.65516   4.66752
 Alpha virt. eigenvalues --    4.67034   4.67467   4.67948   4.69356   4.69849
 Alpha virt. eigenvalues --    4.69969   4.70328   4.71031   4.71719   4.72718
 Alpha virt. eigenvalues --    4.72996   4.73889   4.74734   4.74974   4.75420
 Alpha virt. eigenvalues --    4.76300   4.76618   4.77017   4.77606   4.77978
 Alpha virt. eigenvalues --    4.79001   4.79581   4.79980   4.80320   4.80588
 Alpha virt. eigenvalues --    4.81884   4.82812   4.83523   4.84343   4.85346
 Alpha virt. eigenvalues --    4.85622   4.86408   4.87035   4.87568   4.88072
 Alpha virt. eigenvalues --    4.88781   4.89379   4.90283   4.91018   4.92206
 Alpha virt. eigenvalues --    4.93228   4.93518   4.94009   4.94553   4.95169
 Alpha virt. eigenvalues --    4.95799   4.96635   4.97274   4.97870   4.98399
 Alpha virt. eigenvalues --    4.99074   4.99887   5.00034   5.01686   5.02157
 Alpha virt. eigenvalues --    5.03083   5.03548   5.04066   5.04098   5.05460
 Alpha virt. eigenvalues --    5.06078   5.06739   5.07381   5.08755   5.09718
 Alpha virt. eigenvalues --    5.10016   5.11356   5.11873   5.13639   5.14685
 Alpha virt. eigenvalues --    5.15880   5.17625   5.18509   5.19147   5.19314
 Alpha virt. eigenvalues --    5.19638   5.19966   5.20900   5.21532   5.21640
 Alpha virt. eigenvalues --    5.22168   5.22828   5.22898   5.24058   5.25352
 Alpha virt. eigenvalues --    5.25650   5.26445   5.27291   5.27902   5.29010
 Alpha virt. eigenvalues --    5.29730   5.30956   5.33513   5.34584   5.35019
 Alpha virt. eigenvalues --    5.36183   5.37616   5.38241   5.38763   5.39953
 Alpha virt. eigenvalues --    5.40177   5.41984   5.42427   5.43751   5.44032
 Alpha virt. eigenvalues --    5.45507   5.47425   5.47621   5.48716   5.48890
 Alpha virt. eigenvalues --    5.49628   5.51516   5.52126   5.53123   5.54252
 Alpha virt. eigenvalues --    5.54920   5.57605   5.58714   5.59603   5.60611
 Alpha virt. eigenvalues --    5.60981   5.62091   5.62781   5.63774   5.63888
 Alpha virt. eigenvalues --    5.64094   5.65848   5.66973   5.67914   5.70340
 Alpha virt. eigenvalues --    5.71561   5.73736   5.76707   5.77101   5.78031
 Alpha virt. eigenvalues --    5.79272   5.80427   5.83495   5.85777   5.88574
 Alpha virt. eigenvalues --    5.89101   5.92806   5.95359   5.97813   5.98372
 Alpha virt. eigenvalues --    5.98640   6.00065   6.01003   6.02106   6.03409
 Alpha virt. eigenvalues --    6.04280   6.05373   6.09027   6.12171   6.13789
 Alpha virt. eigenvalues --    6.14347   6.14891   6.16008   6.18498   6.20123
 Alpha virt. eigenvalues --    6.22149   6.22658   6.28838   6.30140   6.31576
 Alpha virt. eigenvalues --    6.32957   6.35458   6.36403   6.41248   6.44248
 Alpha virt. eigenvalues --    6.44567   6.46394   6.48304   6.50976   6.52209
 Alpha virt. eigenvalues --    6.65836   6.66756   6.71884   6.75743   6.83472
 Alpha virt. eigenvalues --    6.84047   6.92071   6.92865   6.96238   7.01831
 Alpha virt. eigenvalues --    7.09636   7.10411   7.15637   7.16470   7.24404
 Alpha virt. eigenvalues --    7.24753   9.34657   9.55821   9.66708  20.29945
 Alpha virt. eigenvalues --   22.42641  22.43585  22.50397  22.53798  22.54771
 Alpha virt. eigenvalues --   22.55121  22.56272  22.57634  22.58048  22.58960
 Alpha virt. eigenvalues --   22.63357  22.64351  22.68595  22.71950  22.75654
 Alpha virt. eigenvalues --   22.77910  22.86053  22.92697  22.93392  22.95801
 Alpha virt. eigenvalues --   22.97277  23.01003  23.05990  23.10256  23.16978
 Alpha virt. eigenvalues --   23.17939  23.24460  23.28804  23.32595  23.36676
 Alpha virt. eigenvalues --   23.41116  23.43175  23.44148  23.46372  23.49094
 Alpha virt. eigenvalues --   23.52002  23.56654  23.72197  23.76364  23.79414
 Alpha virt. eigenvalues --   23.88234  32.48763  32.88451  32.99381  33.05799
 Alpha virt. eigenvalues --   33.15493  33.20313  43.92162  43.93732  43.96278
 Alpha virt. eigenvalues --   43.98254
          Condensed to atoms (all electrons):
 Mulliken charges:
               1
     1  C   -0.394407
     2  C    0.135372
     3  N   -0.202465
     4  C   -0.246729
     5  C   -0.029210
     6  N    0.069182
     7  C   -0.415112
     8  C   -0.120109
     9  S    0.006814
    10  C   -0.393275
    11  Fe  -0.483934
    12  C   -0.599590
    13  C   -0.550978
    14  C   -0.576859
    15  C   -0.522023
    16  N    0.010144
    17  C    0.281984
    18  C    0.047766
    19  C   -0.113150
    20  C    0.280653
    21  C   -0.436721
    22  C   -0.325180
    23  C   -0.253917
    24  C    0.316700
    25  O   -0.330377
    26  O   -0.430981
    27  N   -0.028868
    28  C    0.257295
    29  C   -0.068212
    30  C   -0.029247
    31  C    0.150540
    32  C   -0.779630
    33  C   -0.365890
    34  C   -0.324811
    35  N    0.068635
    36  C    0.302777
    37  C   -0.112118
    38  C   -0.027359
    39  C    0.182627
    40  C   -0.383400
    41  C   -0.265805
    42  C   -0.319477
    43  N    0.038933
    44  C    0.288337
    45  C   -0.129317
    46  C    0.036457
    47  C    0.169331
    48  C   -0.425870
    49  C   -0.207614
    50  C   -0.259786
    51  C    0.321858
    52  O   -0.375083
    53  O   -0.393776
    54  H    0.142571
    55  H    0.161450
    56  H    0.155487
    57  H    0.164716
    58  H    0.191211
    59  H    0.141122
    60  H    0.131353
    61  H    0.134162
    62  H    0.128986
    63  H    0.149566
    64  H    0.164480
    65  H    0.162621
    66  H    0.155223
    67  H    0.135307
    68  H    0.158113
    69  H    0.137964
    70  H    0.124030
    71  H    0.157616
    72  H    0.141320
    73  H    0.156137
    74  H    0.134638
    75  H    0.126540
    76  H    0.151079
    77  H    0.156574
    78  H    0.240532
    79  H    0.269575
    80  H    0.278937
    81  H    0.129750
    82  H    0.128998
    83  H    0.148910
    84  H    0.145968
    85  H    0.142461
    86  H    0.129914
    87  H    0.134356
    88  H    0.125951
    89  H    0.152708
    90  H    0.156589
    91  H    0.139963
    92  H    0.142302
    93  H    0.121002
    94  H    0.123131
    95  H    0.150526
    96  H    0.149245
    97  H    0.275194
    98  H    0.390818
    99  H    0.382147
   100  H    0.169282
   101  H    0.165349
 Sum of Mulliken charges =  -0.00000
 Mulliken charges with hydrogens summed into heavy atoms:
               1
     1  C    0.065101
     2  C    0.135372
     3  N    0.072729
     4  C   -0.082013
     5  C    0.162001
     6  N    0.069182
     7  C   -0.008475
     8  C    0.158443
     9  S    0.006814
    10  C    0.089050
    11  Fe  -0.483934
    12  C   -0.464283
    13  C   -0.392866
    14  C   -0.438895
    15  C   -0.397992
    16  N    0.010144
    17  C    0.281984
    18  C    0.047766
    19  C   -0.113150
    20  C    0.280653
    21  C    0.018353
    22  C   -0.064002
    23  C    0.053735
    24  C    0.316700
    25  O    0.060440
    26  O   -0.430981
    27  N   -0.028868
    28  C    0.257295
    29  C   -0.068212
    30  C   -0.029247
    31  C    0.150540
    32  C    0.009414
    33  C   -0.200541
    34  C    0.082847
    35  N    0.068635
    36  C    0.302777
    37  C   -0.112118
    38  C   -0.027359
    39  C    0.182627
    40  C    0.034944
    41  C   -0.096522
    42  C    0.093537
    43  N    0.038933
    44  C    0.288337
    45  C   -0.129317
    46  C    0.036457
    47  C    0.169331
    48  C    0.012983
    49  C    0.036519
    50  C    0.039985
    51  C    0.321858
    52  O   -0.375083
    53  O   -0.011629
 Electronic spatial extent (au):  <R**2>=          34380.3091
 Charge=              0.0000 electrons
 Dipole moment (field-independent basis, Debye):
    X=              6.5640    Y=              0.1146    Z=              3.3515  Tot=              7.3710
 Quadrupole moment (field-independent basis, Debye-Ang):
   XX=           -383.7945   YY=           -318.1973   ZZ=           -271.5674
   XY=             16.5952   XZ=            -11.7592   YZ=            -22.8706
 Traceless Quadrupole moment (field-independent basis, Debye-Ang):
   XX=            -59.2748   YY=              6.3224   ZZ=             52.9523
   XY=             16.5952   XZ=            -11.7592   YZ=            -22.8706
 Octapole moment (field-independent basis, Debye-Ang**2):
  XXX=            765.1508  YYY=             50.2891  ZZZ=            116.6413  XYY=             84.9617
  XXY=            -62.3447  XXZ=             -7.3988  XZZ=            -71.4033  YZZ=            -66.1534
  YYZ=             47.9748  XYZ=            160.6320
 Hexadecapole moment (field-independent basis, Debye-Ang**3):
 XXXX=         -29619.6148 YYYY=         -15982.4129 ZZZZ=          -4644.5396 XXXY=             95.3691
 XXXZ=            -92.1214 YYYX=           1012.1771 YYYZ=            -54.1176 ZZZX=            125.0479
 ZZZY=           -583.8572 XXYY=          -7638.1028 XXZZ=          -4375.5960 YYZZ=          -3241.6400
 XXYZ=           -608.5182 YYXZ=           -530.6398 ZZXY=            -13.3799
 N-N= 8.962464392131D+03 E-N=-2.705304367004D+04  KE= 3.868518325815D+03
 1\1\GINC-NODE615\SP\RPBE1PBE\def2TZVP\C41H48Fe1N6O4S1\ZHARTOVSKA\28-Ja
 n-2023\0\\# PBE1PBE/def2TZVP empiricaldispersion=GD3BJ int=(grid=ultra
 fine) geom=check guess=read scrf=(smd,solvent=Chloroform)\\6k9j_II_S_s
 olv\\0,1\C,0,20.589,-0.269,0.293\C,0,19.184,0.027,-0.154\N,0,18.861,0.
 291,-1.449\C,0,18.035,0.183,0.539\C,0,17.561,0.565,-1.503\N,0,16.995,0
 .506,-0.296\C,0,11.162,0.21,-0.825\C,0,11.833,0.485,0.537\S,0,13.026,1
 .829,0.454\C,0,12.891,2.534,2.064\Fe,0,15.157,1.053,0.177\C,0,14.38,1.
 933,-3.125\C,0,16.539,4.117,0.61\C,0,15.54,0.328,3.416\C,0,14.235,-2.1
 44,-0.506\N,0,15.396,2.682,-1.005\C,0,14.932,2.904,-2.293\C,0,15.206,4
 .264,-2.705\C,0,15.845,4.868,-1.672\C,0,15.972,3.889,-0.616\C,0,16.335
 ,6.3,-1.57\C,0,14.904,4.841,-4.059\C,0,16.097,4.611,-5.004\C,0,15.991,
 5.272,-6.373\O,0,16.958,5.076,-7.149\O,0,14.97,6.,-6.645\N,0,15.913,2.
 071,1.739\C,0,16.523,3.253,1.707\C,0,17.009,3.553,3.011\C,0,16.667,2.5
 47,3.842\C,0,15.986,1.56,2.988\C,0,17.848,4.799,3.295\C,0,16.792,2.441
 ,5.307\C,0,16.09,3.468,6.068\N,0,14.863,-0.565,1.229\C,0,15.077,-0.694
 ,2.584\C,0,14.842,-2.035,3.02\C,0,14.53,-2.77,1.906\C,0,14.545,-1.835,
 0.791\C,0,15.057,-2.575,4.423\C,0,14.408,-4.259,1.756\C,0,13.481,-4.96
 ,2.698\N,0,14.506,0.1,-1.492\C,0,14.145,-1.255,-1.571\C,0,13.661,-1.57
 5,-2.887\C,0,13.692,-0.447,-3.631\C,0,14.194,0.612,-2.741\C,0,13.15,-2
 .949,-3.305\C,0,13.169,-0.261,-5.035\C,0,11.663,-0.021,-4.949\C,0,10.9
 ,-0.007,-6.239\O,0,11.421,-0.261,-7.332\O,0,9.632,0.262,-6.142\H,0,21.
 27446309,0.00053323,-0.48313928\H,0,20.80903392,0.2953711,1.17502627\H
 ,0,20.68319589,-1.31351579,0.50516478\H,0,17.94733813,0.06964324,1.599
 36109\H,0,17.03382884,0.80335859,-2.40309763\H,0,10.09995605,0.2896049
 4,-0.72191893\H,0,11.41542886,-0.77582717,-1.15487666\H,0,11.50531321,
 0.92552474,-1.54267708\H,0,12.39234302,-0.39518324,0.77640102\H,0,11.0
 5416742,0.81822998,1.19066474\H,0,13.81162816,3.01485366,2.321145\H,0,
 12.09843548,3.25278711,2.07330395\H,0,12.68099137,1.76229422,2.7748210
 5\H,0,14.08367617,2.22036105,-4.11217568\H,0,17.04491461,5.0508154,0.7
 4015075\H,0,15.54918318,0.1395458,4.46923344\H,0,14.04244763,-3.174129
 39,-0.72200238\H,0,17.33708907,6.30821743,-1.1949667\H,0,16.31289183,6
 .75437326,-2.53848137\H,0,15.70064754,6.84749078,-0.90460478\H,0,14.81
 447239,5.89929982,-3.92905272\H,0,14.08442527,4.27955706,-4.45646582\H
 ,0,16.10955047,3.55844806,-5.19603357\H,0,16.93298816,5.07767466,-4.52
 62568\H,0,18.30309674,4.11549298,3.98100664\H,0,16.87321544,5.2396924,
 3.27297117\H,0,17.91554151,5.42828044,4.15775389\H,0,16.69990515,3.783
 21587,6.88870376\H,0,15.88559498,4.30493482,5.43344607\H,0,15.1694225,
 3.06938843,6.44021752\H,0,15.99587272,-3.08622903,4.46841912\H,0,15.05
 834687,-1.76401277,5.12099563\H,0,14.26826574,-3.25523296,4.66811505\H
 ,0,13.91084125,-5.89478086,2.99180476\H,0,13.32508992,-4.35123781,3.56
 402578\H,0,12.54405231,-5.13535628,2.21191441\H,0,13.74470405,-3.31991
 796,-4.11348436\H,0,13.21632083,-3.62170083,-2.47555733\H,0,12.1302905
 5,-2.86982854,-3.61936369\H,0,13.31085766,-1.18867271,-5.54900364\H,0,
 13.60906955,0.63580218,-5.41838576\H,0,11.5598991,0.96757602,-4.552783
 31\H,0,11.27736258,-0.85812279,-4.4054844\H,0,19.49151881,0.28075692,-
 2.22510638\H,0,17.85787242,5.15789243,-6.82477284\H,0,9.3466566,1.1242
 6594,-5.83107139\H,0,14.95832778,-4.79369883,1.01025441\H,0,17.3579758
 8,1.66512577,5.77879495\\Version=ES64L-G16RevA.03\State=1-A\HF=-3880.4
 147567\RMSD=3.422e-09\Dipole=1.6967162,-1.2346932,2.0016368\Quadrupole
 =32.6454624,-0.8333994,-31.812063,-1.5688902,-34.908757,3.813835\PG=C0
 1 [X(C41H48Fe1N6O4S1)]\\@


 NOTHING MAKES A PERSON MORE PRODUCTIVE THAN THE LAST MINUTE.
 Job cpu time:       1 days  7 hours 10 minutes 28.5 seconds.
 Elapsed time:       0 days  7 hours 53 minutes 34.8 seconds.
 File lengths (MBytes):  RWF=   2777 Int=      0 D2E=      0 Chk=    254 Scr=      1
 Normal termination of Gaussian 16 at Sat Jan 28 16:41:14 2023.
