 Entering Gaussian System, Link 0=g16
 Input=/net/homes/chemie/zhartovska/work/BioModel/Konrad/6u97/6u9705/6u9705.com
 Output=/net/homes/chemie/zhartovska/work/BioModel/Konrad/6u97/6u9705/6u9705.log
 Initial command:
 /afs/math/software/gaussian/g16.A03/g16/l1.exe "/scratch/zhartovska_gaussian.OOcR6De/Gau-32224.inp" -scrdir="/scratch/zhartovska_gaussian.OOcR6De/"
 Entering Link 1 = /afs/math/software/gaussian/g16.A03/g16/l1.exe PID=     32225.
  
 Copyright (c) 1988,1990,1992,1993,1995,1998,2003,2009,2016,
            Gaussian, Inc.  All Rights Reserved.
  
 This is part of the Gaussian(R) 16 program.  It is based on
 the Gaussian(R) 09 system (copyright 2009, Gaussian, Inc.),
 the Gaussian(R) 03 system (copyright 2003, Gaussian, Inc.),
 the Gaussian(R) 98 system (copyright 1998, Gaussian, Inc.),
 the Gaussian(R) 94 system (copyright 1995, Gaussian, Inc.),
 the Gaussian 92(TM) system (copyright 1992, Gaussian, Inc.),
 the Gaussian 90(TM) system (copyright 1990, Gaussian, Inc.),
 the Gaussian 88(TM) system (copyright 1988, Gaussian, Inc.),
 the Gaussian 86(TM) system (copyright 1986, Carnegie Mellon
 University), and the Gaussian 82(TM) system (copyright 1983,
 Carnegie Mellon University). Gaussian is a federally registered
 trademark of Gaussian, Inc.
  
 This software contains proprietary and confidential information,
 including trade secrets, belonging to Gaussian, Inc.
  
 This software is provided under written license and may be
 used, copied, transmitted, or stored only in accord with that
 written license.
  
 The following legend is applicable only to US Government
 contracts under FAR:
  
                    RESTRICTED RIGHTS LEGEND
  
 Use, reproduction and disclosure by the US Government is
 subject to restrictions as set forth in subparagraphs (a)
 and (c) of the Commercial Computer Software - Restricted
 Rights clause in FAR 52.227-19.
  
 Gaussian, Inc.
 340 Quinnipiac St., Bldg. 40, Wallingford CT 06492
  
  
 ---------------------------------------------------------------
 Warning -- This program may not be used in any manner that
 competes with the business of Gaussian, Inc. or will provide
 assistance to any competitor of Gaussian, Inc.  The licensee
 of this program is prohibited from giving any competitor of
 Gaussian, Inc. access to this program.  By using this program,
 the user acknowledges that Gaussian, Inc. is engaged in the
 business of creating and licensing software in the field of
 computational chemistry and represents and warrants to the
 licensee that it is not a competitor of Gaussian, Inc. and that
 it will not use this program in any manner prohibited above.
 ---------------------------------------------------------------
  

 Cite this work as:
 Gaussian 16, Revision A.03,
 M. J. Frisch, G. W. Trucks, H. B. Schlegel, G. E. Scuseria, 
 M. A. Robb, J. R. Cheeseman, G. Scalmani, V. Barone, 
 G. A. Petersson, H. Nakatsuji, X. Li, M. Caricato, A. V. Marenich, 
 J. Bloino, B. G. Janesko, R. Gomperts, B. Mennucci, H. P. Hratchian, 
 J. V. Ortiz, A. F. Izmaylov, J. L. Sonnenberg, D. Williams-Young, 
 F. Ding, F. Lipparini, F. Egidi, J. Goings, B. Peng, A. Petrone, 
 T. Henderson, D. Ranasinghe, V. G. Zakrzewski, J. Gao, N. Rega, 
 G. Zheng, W. Liang, M. Hada, M. Ehara, K. Toyota, R. Fukuda, 
 J. Hasegawa, M. Ishida, T. Nakajima, Y. Honda, O. Kitao, H. Nakai, 
 T. Vreven, K. Throssell, J. A. Montgomery, Jr., J. E. Peralta, 
 F. Ogliaro, M. J. Bearpark, J. J. Heyd, E. N. Brothers, K. N. Kudin, 
 V. N. Staroverov, T. A. Keith, R. Kobayashi, J. Normand, 
 K. Raghavachari, A. P. Rendell, J. C. Burant, S. S. Iyengar, 
 J. Tomasi, M. Cossi, J. M. Millam, M. Klene, C. Adamo, R. Cammi, 
 J. W. Ochterski, R. L. Martin, K. Morokuma, O. Farkas, 
 J. B. Foresman, and D. J. Fox, Gaussian, Inc., Wallingford CT, 2016.
 
 ******************************************
 Gaussian 16:  ES64L-G16RevA.03 25-Dec-2016
                 8-Sep-2022 
 ******************************************
 %nprocs=12
 Will use up to   12 processors via shared memory.
 %mem=16GB
 %oldchk=6u97_II_S.chk
 %chk=6u97_II_Q.chk
 Copying data from "6u97_II_S.chk" to current chk file "6u97_II_Q.chk"
 IOpt=  2 FromEx=T IUOpen= 4 IOptOp= 5 NList=   0 IFRang= 0 IUIn= 4 IUOut= 2.
 ----------------------------------------------------------------------
 # PBE1PBE/def2TZVP empiricaldispersion=GD3BJ scf=maxcycle=999 geom=che
 ck pop=nbo
 ----------------------------------------------------------------------
 1/29=2,38=1,172=1/1;
 2/12=2,40=1/2;
 3/5=44,7=101,11=2,14=-4,25=1,30=1,74=-13,124=41/1,2,3;
 4//1;
 5/5=2,7=999,38=5/2;
 6/7=2,8=2,9=2,10=2,28=1,40=1/1,7;
 99/5=1,9=1/99;
 ---------
 6u97_II_Q
 ---------
 Structure from the checkpoint file:  "6u97_II_Q.chk"
 Charge =  0 Multiplicity = 5
 Z-Matrix found in chk file.
 C,0,12.517,7.03,2.288
 C,0,13.4,6.958,3.489
 N,0,14.613,7.595,3.594
 C,0,13.26,6.242,4.606
 C,0,15.164,7.288,4.744
 N,0,14.389,6.463,5.382
 H,0,11.71441422,6.33017963,2.39291666
 H,0,13.08509326,6.79261905,1.41288839
 H,0,14.957,8.112,2.999
 H,0,12.54,5.696,4.824
 H,0,15.98,7.611,5.054
 C,0,15.346,6.424,11.225
 C,0,14.529,5.302,10.609
 S,0,15.366,4.544,9.183
 C,0,14.694,2.926,9.252
 H,0,15.73147172,7.05198011,10.449144
 H,0,16.15819869,6.00838336,11.7840135
 H,0,14.382,4.612,11.275
 H,0,13.678,5.657,10.306
 H,0,15.047,2.406,8.513
 H,0,14.945,2.516,10.094
 H,0,13.728,2.982,9.186
 C,0,18.1,6.369,6.981
 C,0,15.37,2.706,5.458
 C,0,11.541,4.669,7.591
 C,0,14.202,8.564,8.629
 C,0,17.722,5.234,6.322
 C,0,18.555,4.319,5.554
 C,0,17.823999,3.283,5.196
 C,0,16.473,3.509,5.704
 C,0,18.245001,2.091,4.382
 C,0,20.017,4.595,5.237
 C,0,20.931999,4.521,6.421
 C,0,22.370001,4.913,6.118
 O,0,22.768,5.104,4.934
 O,0,23.128,5.072,7.127
 C,0,14.099,2.916,5.94
 C,0,13.005,1.999,5.718
 C,0,11.949,2.531,6.355
 C,0,12.339,3.781,6.927
 C,0,13.114,0.679,4.967
 C,0,10.543,1.907,6.561
 C,0,10.522,0.668,7.213
 C,0,11.888,5.929,8.052
 C,0,11.028,6.952,8.606
 C,0,11.774,8.029,8.848
 C,0,13.139,7.718,8.455
 C,0,9.543,6.752,8.806
 C,0,11.308,9.397,9.33
 C,0,10.556,9.519,10.478
 C,0,15.518,8.288,8.344
 C,0,16.648001,9.08,8.754
 C,0,17.729,8.448,8.317
 C,0,17.313,7.272,7.626
 C,0,16.607,10.392,9.536
 C,0,19.181999,8.904,8.521
 C,0,19.809999,8.162,9.708
 C,0,21.224001,8.549,9.966
 O,0,22.017,7.705,10.427
 O,0,21.614,9.703,9.719
 N,0,16.462999,4.718,6.355
 N,0,13.66,4.011,6.62
 N,0,13.14,6.449,7.972
 N,0,15.958,7.171,7.716
 Fe,0,14.8,5.577,7.173
 H,0,15.509,1.919,4.891
 H,0,10.619,4.383,7.761
 H,0,14.006,9.453,8.992
 H,0,18.559,2.389,3.503
 H,0,17.482,1.487,4.268
 H,0,18.969,1.618,4.844
 H,0,20.082001,5.486,4.859
 H,0,20.313,3.943,4.583
 H,0,20.927999,3.61,6.753
 H,0,20.593,5.117,7.107
 H,0,12.253,0.232,4.972
 H,0,13.774,0.115,5.399
 H,0,13.384,0.85,4.051
 H,0,9.741,2.342,6.261
 H,0,9.677,0.219,7.376
 H,0,11.352,0.258,7.503
 H,0,9.127,6.536,7.957
 H,0,9.151,7.566,9.16
 H,0,9.395,6.025,9.432
 H,0,11.542,10.182,8.829
 H,0,10.265,10.394,10.776
 H,0,10.318,8.729,10.987
 H,0,17.481001,10.553,9.95
 H,0,15.921,10.336,10.233
 H,0,16.393999,11.129,8.926
 H,0,19.197001,9.858,8.695
 H,0,19.693001,8.714,7.718
 H,0,19.780001,7.21,9.526
 H,0,19.288,8.357,10.503
 H,0,19.062,6.557,6.991
 H,0,12.11841389,8.01882268,2.19712197
 H,0,14.72402436,7.00224796,11.87590368
 H,0,22.55401012,9.89357072,9.6782106
 H,0,23.70825323,5.13485011,4.74276159
 Recover connectivity data from disk.
 Stoichiometry    C41H46FeN6O4S(5)
 Framework group  C1[X(C41H46FeN6O4S)]
 Deg. of freedom   291
 Full point group                 C1      NOp   1
 Largest Abelian subgroup         C1      NOp   1
 Largest concise Abelian subgroup C1      NOp   1
                         Standard orientation:                         
 ---------------------------------------------------------------------
 Center     Atomic      Atomic             Coordinates (Angstroms)
 Number     Number       Type             X           Y           Z
 ---------------------------------------------------------------------
      1          6           0        3.101105   -1.354477    4.982334
      2          6           0        2.179313   -0.879700    3.908946
      3          7           0        0.858977   -0.558060    4.112472
      4          6           0        2.392221   -0.757279    2.597601
      5          6           0        0.312101   -0.231984    2.965759
      6          7           0        1.196849   -0.351046    2.021651
      7          1           0        4.020043   -1.683175    4.543689
      8          1           0        2.646494   -2.167343    5.509095
      9          1           0        0.454898   -0.570153    4.871566
     10          1           0        3.192643   -0.915166    2.152139
     11          1           0       -0.569440    0.042282    2.847657
     12          6           0       -0.085785    2.863147   -2.782704
     13          6           0        0.975839    1.782390   -2.886368
     14         16           0        0.396357    0.184148   -2.239507
     15          6           0        1.374269   -0.911828   -3.197002
     16          1           0       -0.541728    2.823633   -1.815515
     17          1           0       -0.830336    2.705037   -3.534732
     18          1           0        1.217753    1.661536   -3.818107
     19          1           0        1.754960    2.051078   -2.373715
     20          1           0        1.178476   -1.823900   -2.930695
     21          1           0        1.160106   -0.788262   -4.134515
     22          1           0        2.311510   -0.715694   -3.042859
     23          6           0       -2.509699   -0.218745    0.415055
     24          6           0        0.987897   -3.447857   -0.312719
     25          6           0        4.207713    0.102820   -0.612342
     26          6           0        0.760419    3.242548    0.647682
     27          6           0       -1.872074   -1.421767    0.307534
     28          6           0       -2.456056   -2.755678    0.331709
     29          6           0       -1.511459   -3.634337    0.064286
     30          6           0       -0.266802   -2.891367   -0.117823
     31          6           0       -1.634175   -5.131145   -0.007902
     32          6           0       -3.921695   -3.014501    0.646388
     33          6           0       -4.873338   -2.557612   -0.416712
     34          6           0       -6.339669   -2.712456   -0.043588
     35          8           0       -6.695284   -3.337147    0.995661
     36          8           0       -7.173995   -2.144577   -0.817757
     37          6           0        2.159129   -2.748536   -0.488872
     38          6           0        3.426475   -3.382138   -0.770641
     39          6           0        4.313392   -2.381607   -0.898097
     40          6           0        3.646212   -1.141866   -0.653769
     41          6           0        3.630702   -4.880655   -0.946767
     42          6           0        5.800934   -2.472112   -1.331313
     43          6           0        6.030802   -3.056820   -2.582690
     44          6           0        3.587306    1.293672   -0.269565
     45          6           0        4.188983    2.591882   -0.055831
     46          6           0        3.228527    3.431567    0.328176
     47          6           0        1.980275    2.686730    0.366654
     48          6           0        5.668944    2.846115   -0.229912
     49          6           0        3.380038    4.880230    0.774632
     50          6           0        4.021071    5.799315   -0.027023
     51          6           0       -0.453514    2.598330    0.623010
     52          6           0       -1.742360    3.237236    0.677239
     53          6           0       -2.645773    2.270851    0.582913
     54          6           0       -1.960813    1.024368    0.479835
     55          6           0       -2.013346    4.734251    0.818871
     56          6           0       -4.170409    2.461222    0.583482
     57          6           0       -4.707422    2.452544   -0.853688
     58          6           0       -6.183346    2.628228   -0.934416
     59          8           0       -6.817108    2.080226   -1.857316
     60          8           0       -6.781509    3.311318   -0.085644
     61          7           0       -0.539450   -1.558279    0.066893
     62          7           0        2.327067   -1.403024   -0.364211
     63          7           0        2.263578    1.407084    0.011834
     64          7           0       -0.621167    1.265921    0.443419
     65         26           0        0.864259   -0.074817    0.027991
     66          1           0        1.044536   -4.426005   -0.326736
     67          1           0        5.156314    0.160641   -0.852327
     68          1           0        0.751404    4.192096    0.890134
     69          1           0       -1.947678   -5.476031    0.853963
     70          1           0       -0.759898   -5.521154   -0.216505
     71          1           0       -2.275071   -5.373852   -0.709110
     72          1           0       -4.141305   -2.550481    1.469460
     73          1           0       -4.040399   -3.968908    0.770698
     74          1           0       -4.706559   -3.076418   -1.218700
     75          1           0       -4.703285   -1.619831   -0.596661
     76          1           0        4.562027   -5.058178   -1.152375
     77          1           0        3.072484   -5.199734   -1.672647
     78          1           0        3.387980   -5.338224   -0.126454
     79          1           0        6.515891   -2.148586   -0.777602
     80          1           0        6.937291   -3.146217   -2.918071
     81          1           0        5.284053   -3.372145   -3.115640
     82          1           0        6.170626    2.259935    0.357643
     83          1           0        5.867179    3.770285   -0.010389
     84          1           0        5.921698    2.672922   -1.151014
     85          1           0        3.023958    5.155388    1.622852
     86          1           0        4.111700    6.718461    0.266350
     87          1           0        4.381581    5.525728   -0.884348
     88          1           0       -2.925364    4.931076    0.517744
     89          1           0       -1.373697    5.235581    0.272010
     90          1           0       -1.916120    4.996067    1.758359
     91          1           0       -4.387309    3.308971    1.001686
     92          1           0       -4.583099    1.739196    1.083880
     93          1           0       -4.475776    1.604628   -1.263208
     94          1           0       -4.284499    3.175965   -1.343924
     95          1           0       -3.488650   -0.255571    0.449510
     96          1           0        3.297669   -0.553310    5.663799
     97          1           0        0.366639    3.822322   -2.924819
     98          1           0       -7.736392    3.251007   -0.007155
     99          1           0       -7.609181   -3.611235    1.101817
 ---------------------------------------------------------------------
 Rotational constants (GHZ):           0.0694089           0.0433740           0.0337997
 Standard basis: def2TZVP (5D, 7F)
 There are  2206 symmetry adapted cartesian basis functions of A   symmetry.
 There are  1939 symmetry adapted basis functions of A   symmetry.
  1939 basis functions,  3140 primitive gaussians,  2206 cartesian basis functions
   206 alpha electrons      202 beta electrons
       nuclear repulsion energy      8930.6833855631 Hartrees.
 NAtoms=   99 NActive=   99 NUniq=   99 SFac= 1.00D+00 NAtFMM=   60 NAOKFM=T Big=T
 Integral buffers will be    131072 words long.
 Raffenetti 2 integral format.
 Two-electron integral symmetry is turned on.
 Nuclear repulsion after empirical dispersion term =     8930.5334228790 Hartrees.
 One-electron integrals computed using PRISM.
   1 Symmetry operations used in ECPInt.
 ECPInt:  NShTT=  299151 NPrTT=  925475 LenC2=  220118 LenP2D=  440669.
 LDataN:  DoStor=T MaxTD1= 6 Len=  172
 NBasis=  1939 RedAO= T EigKep=  2.50D-06  NBF=  1939
 NBsUse=  1939 1.00D-06 EigRej= -1.00D+00 NBFU=  1939
 ExpMin= 4.20D-02 ExpMax= 3.01D+05 ExpMxC= 2.91D+03 IAcc=3 IRadAn=         5 AccDes= 0.00D+00
 Harris functional with IExCor= 1009 and IRadAn=       5 diagonalized for initial guess.
 HarFok:  IExCor= 1009 AccDes= 0.00D+00 IRadAn=         5 IDoV= 1 UseB2=F ITyADJ=14
 ICtDFT=  3500011 ScaDFX=  1.000000  1.000000  1.000000  1.000000
 FoFCou: FMM=F IPFlag=           0 FMFlag=      100000 FMFlg1=        2001
         NFxFlg=           0 DoJE=T BraDBF=F KetDBF=T FulRan=T
         wScrn=  0.000000 ICntrl=       500 IOpCl=  0 I1Cent=   200000004 NGrid=           0
         NMat0=    1 NMatS0=      1 NMatT0=    0 NMatD0=    1 NMtDS0=    0 NMtDT0=    0
 Petite list used in FoFCou.
 Initial guess <Sx>= 0.0000 <Sy>= 0.0000 <Sz>= 2.0000 <S**2>= 6.0000 S= 2.0000
 Requested convergence on RMS density matrix=1.00D-08 within 999 cycles.
 Requested convergence on MAX density matrix=1.00D-06.
 Requested convergence on             energy=1.00D-06.
 No special actions if energy rises.
 EnCoef did   100 forward-backward iterations
 EnCoef did     4 forward-backward iterations
 EnCoef did     3 forward-backward iterations
 EnCoef did     1 forward-backward iterations
 Restarting incremental Fock formation.
 Restarting incremental Fock formation.
 Restarting incremental Fock formation.
 Restarting incremental Fock formation.
 Restarting incremental Fock formation.
 Restarting incremental Fock formation.
 Restarting incremental Fock formation.
 Restarting incremental Fock formation.
 Restarting incremental Fock formation.
 SCF Done:  E(UPBE1PBE) =  -3878.93146943     A.U. after  198 cycles
            NFock=198  Conv=0.23D-08     -V/T= 2.0011
 <Sx>= 0.0000 <Sy>= 0.0000 <Sz>= 2.0000 <S**2>= 6.0481 S= 2.0096
 <L.S>= 0.000000000000E+00
 Annihilation of the first spin contaminant:
 S**2 before annihilation     6.0481,   after     6.0006

 **********************************************************************

            Population analysis using the SCF density.

 **********************************************************************

 Orbital symmetries:
 Alpha Orbitals:
       Occupied  (A) (A) (A) (A) (A) (A) (A) (A) (A) (A) (A) (A)
                 (A) (A) (A) (A) (A) (A) (A) (A) (A) (A) (A) (A)
                 (A) (A) (A) (A) (A) (A) (A) (A) (A) (A) (A) (A)
                 (A) (A) (A) (A) (A) (A) (A) (A) (A) (A) (A) (A)
                 (A) (A) (A) (A) (A) (A) (A) (A) (A) (A) (A) (A)
                 (A) (A) (A) (A) (A) (A) (A) (A) (A) (A) (A) (A)
                 (A) (A) (A) (A) (A) (A) (A) (A) (A) (A) (A) (A)
                 (A) (A) (A) (A) (A) (A) (A) (A) (A) (A) (A) (A)
                 (A) (A) (A) (A) (A) (A) (A) (A) (A) (A) (A) (A)
                 (A) (A) (A) (A) (A) (A) (A) (A) (A) (A) (A) (A)
                 (A) (A) (A) (A) (A) (A) (A) (A) (A) (A) (A) (A)
                 (A) (A) (A) (A) (A) (A) (A) (A) (A) (A) (A) (A)
                 (A) (A) (A) (A) (A) (A) (A) (A) (A) (A) (A) (A)
                 (A) (A) (A) (A) (A) (A) (A) (A) (A) (A) (A) (A)
                 (A) (A) (A) (A) (A) (A) (A) (A) (A) (A) (A) (A)
                 (A) (A) (A) (A) (A) (A) (A) (A) (A) (A) (A) (A)
                 (A) (A) (A) (A) (A) (A) (A) (A) (A) (A) (A) (A)
                 (A) (A)
       Virtual   (A) (A) (A) (A) (A) (A) (A) (A) (A) (A) (A) (A)
                 (A) (A) (A) (A) (A) (A) (A) (A) (A) (A) (A) (A)
                 (A) (A) (A) (A) (A) (A) (A) (A) (A) (A) (A) (A)
                 (A) (A) (A) (A) (A) (A) (A) (A) (A) (A) (A) (A)
                 (A) (A) (A) (A) (A) (A) (A) (A) (A) (A) (A) (A)
                 (A) (A) (A) (A) (A) (A) (A) (A) (A) (A) (A) (A)
                 (A) (A) (A) (A) (A) (A) (A) (A) (A) (A) (A) (A)
                 (A) (A) (A) (A) (A) (A) (A) (A) (A) (A) (A) (A)
                 (A) (A) (A) (A) (A) (A) (A) (A) (A) (A) (A) (A)
                 (A) (A) (A) (A) (A) (A) (A) (A) (A) (A) (A) (A)
                 (A) (A) (A) (A) (A) (A) (A) (A) (A) (A) (A) (A)
                 (A) (A) (A) (A) (A) (A) (A) (A) (A) (A) (A) (A)
                 (A) (A) (A) (A) (A) (A) (A) (A) (A) (A) (A) (A)
                 (A) (A) (A) (A) (A) (A) (A) (A) (A) (A) (A) (A)
                 (A) (A) (A) (A) (A) (A) (A) (A) (A) (A) (A) (A)
                 (A) (A) (A) (A) (A) (A) (A) (A) (A) (A) (A) (A)
                 (A) (A) (A) (A) (A) (A) (A) (A) (A) (A) (A) (A)
                 (A) (A) (A) (A) (A) (A) (A) (A) (A) (A) (A) (A)
                 (A) (A) (A) (A) (A) (A) (A) (A) (A) (A) (A) (A)
                 (A) (A) (A) (A) (A) (A) (A) (A) (A) (A) (A) (A)
                 (A) (A) (A) (A) (A) (A) (A) (A) (A) (A) (A) (A)
                 (A) (A) (A) (A) (A) (A) (A) (A) (A) (A) (A) (A)
                 (A) (A) (A) (A) (A) (A) (A) (A) (A) (A) (A) (A)
                 (A) (A) (A) (A) (A) (A) (A) (A) (A) (A) (A) (A)
                 (A) (A) (A) (A) (A) (A) (A) (A) (A) (A) (A) (A)
                 (A) (A) (A) (A) (A) (A) (A) (A) (A) (A) (A) (A)
                 (A) (A) (A) (A) (A) (A) (A) (A) (A) (A) (A) (A)
                 (A) (A) (A) (A) (A) (A) (A) (A) (A) (A) (A) (A)
                 (A) (A) (A) (A) (A) (A) (A) (A) (A) (A) (A) (A)
                 (A) (A) (A) (A) (A) (A) (A) (A) (A) (A) (A) (A)
                 (A) (A) (A) (A) (A) (A) (A) (A) (A) (A) (A) (A)
                 (A) (A) (A) (A) (A) (A) (A) (A) (A) (A) (A) (A)
                 (A) (A) (A) (A) (A) (A) (A) (A) (A) (A) (A) (A)
                 (A) (A) (A) (A) (A) (A) (A) (A) (A) (A) (A) (A)
                 (A) (A) (A) (A) (A) (A) (A) (A) (A) (A) (A) (A)
                 (A) (A) (A) (A) (A) (A) (A) (A) (A) (A) (A) (A)
                 (A) (A) (A) (A) (A) (A) (A) (A) (A) (A) (A) (A)
                 (A) (A) (A) (A) (A) (A) (A) (A) (A) (A) (A) (A)
                 (A) (A) (A) (A) (A) (A) (A) (A) (A) (A) (A) (A)
                 (A) (A) (A) (A) (A) (A) (A) (A) (A) (A) (A) (A)
                 (A) (A) (A) (A) (A) (A) (A) (A) (A) (A) (A) (A)
                 (A) (A) (A) (A) (A) (A) (A) (A) (A) (A) (A) (A)
                 (A) (A) (A) (A) (A) (A) (A) (A) (A) (A) (A) (A)
                 (A) (A) (A) (A) (A) (A) (A) (A) (A) (A) (A) (A)
                 (A) (A) (A) (A) (A) (A) (A) (A) (A) (A) (A) (A)
                 (A) (A) (A) (A) (A) (A) (A) (A) (A) (A) (A) (A)
                 (A) (A) (A) (A) (A) (A) (A) (A) (A) (A) (A) (A)
                 (A) (A) (A) (A) (A) (A) (A) (A) (A) (A) (A) (A)
                 (A) (A) (A) (A) (A) (A) (A) (A) (A) (A) (A) (A)
                 (A) (A) (A) (A) (A) (A) (A) (A) (A) (A) (A) (A)
                 (A) (A) (A) (A) (A) (A) (A) (A) (A) (A) (A) (A)
                 (A) (A) (A) (A) (A) (A) (A) (A) (A) (A) (A) (A)
                 (A) (A) (A) (A) (A) (A) (A) (A) (A) (A) (A) (A)
                 (A) (A) (A) (A) (A) (A) (A) (A) (A) (A) (A) (A)
                 (A) (A) (A) (A) (A) (A) (A) (A) (A) (A) (A) (A)
                 (A) (A) (A) (A) (A) (A) (A) (A) (A) (A) (A) (A)
                 (A) (A) (A) (A) (A) (A) (A) (A) (A) (A) (A) (A)
                 (A) (A) (A) (A) (A) (A) (A) (A) (A) (A) (A) (A)
                 (A) (A) (A) (A) (A) (A) (A) (A) (A) (A) (A) (A)
                 (A) (A) (A) (A) (A) (A) (A) (A) (A) (A) (A) (A)
                 (A) (A) (A) (A) (A) (A) (A) (A) (A) (A) (A) (A)
                 (A) (A) (A) (A) (A) (A) (A) (A) (A) (A) (A) (A)
                 (A) (A) (A) (A) (A) (A) (A) (A) (A) (A) (A) (A)
                 (A) (A) (A) (A) (A) (A) (A) (A) (A) (A) (A) (A)
                 (A) (A) (A) (A) (A) (A) (A) (A) (A) (A) (A) (A)
                 (A) (A) (A) (A) (A) (A) (A) (A) (A) (A) (A) (A)
                 (A) (A) (A) (A) (A) (A) (A) (A) (A) (A) (A) (A)
                 (A) (A) (A) (A) (A) (A) (A) (A) (A) (A) (A) (A)
                 (A) (A) (A) (A) (A) (A) (A) (A) (A) (A) (A) (A)
                 (A) (A) (A) (A) (A) (A) (A) (A) (A) (A) (A) (A)
                 (A) (A) (A) (A) (A) (A) (A) (A) (A) (A) (A) (A)
                 (A) (A) (A) (A) (A) (A) (A) (A) (A) (A) (A) (A)
                 (A) (A) (A) (A) (A) (A) (A) (A) (A) (A) (A) (A)
                 (A) (A) (A) (A) (A) (A) (A) (A) (A) (A) (A) (A)
                 (A) (A) (A) (A) (A) (A) (A) (A) (A) (A) (A) (A)
                 (A) (A) (A) (A) (A) (A) (A) (A) (A) (A) (A) (A)
                 (A) (A) (A) (A) (A) (A) (A) (A) (A) (A) (A) (A)
                 (A) (A) (A) (A) (A) (A) (A) (A) (A) (A) (A) (A)
                 (A) (A) (A) (A) (A) (A) (A) (A) (A) (A) (A) (A)
                 (A) (A) (A) (A) (A) (A) (A) (A) (A) (A) (A) (A)
                 (A) (A) (A) (A) (A) (A) (A) (A) (A) (A) (A) (A)
                 (A) (A) (A) (A) (A) (A) (A) (A) (A) (A) (A) (A)
                 (A) (A) (A) (A) (A) (A) (A) (A) (A) (A) (A) (A)
                 (A) (A) (A) (A) (A) (A) (A) (A) (A) (A) (A) (A)
                 (A) (A) (A) (A) (A) (A) (A) (A) (A) (A) (A) (A)
                 (A) (A) (A) (A) (A) (A) (A) (A) (A) (A) (A) (A)
                 (A) (A) (A) (A) (A) (A) (A) (A) (A) (A) (A) (A)
                 (A) (A) (A) (A) (A) (A) (A) (A) (A) (A) (A) (A)
                 (A) (A) (A) (A) (A) (A) (A) (A) (A) (A) (A) (A)
                 (A) (A) (A) (A) (A) (A) (A) (A) (A) (A) (A) (A)
                 (A) (A) (A) (A) (A) (A) (A) (A) (A) (A) (A) (A)
                 (A) (A) (A) (A) (A) (A) (A) (A) (A) (A) (A) (A)
                 (A) (A) (A) (A) (A) (A) (A) (A) (A) (A) (A) (A)
                 (A) (A) (A) (A) (A) (A) (A) (A) (A) (A) (A) (A)
                 (A) (A) (A) (A) (A) (A) (A) (A) (A) (A) (A) (A)
                 (A) (A) (A) (A) (A) (A) (A) (A) (A) (A) (A) (A)
                 (A) (A) (A) (A) (A) (A) (A) (A) (A) (A) (A) (A)
                 (A) (A) (A) (A) (A) (A) (A) (A) (A) (A) (A) (A)
                 (A) (A) (A) (A) (A) (A) (A) (A) (A) (A) (A) (A)
                 (A) (A) (A) (A) (A) (A) (A) (A) (A) (A) (A) (A)
                 (A) (A) (A) (A) (A) (A) (A) (A) (A) (A) (A) (A)
                 (A) (A) (A) (A) (A) (A) (A) (A) (A) (A) (A) (A)
                 (A) (A) (A) (A) (A) (A) (A) (A) (A) (A) (A) (A)
                 (A) (A) (A) (A) (A) (A) (A) (A) (A) (A) (A) (A)
                 (A) (A) (A) (A) (A) (A) (A) (A) (A) (A) (A) (A)
                 (A) (A) (A) (A) (A) (A) (A) (A) (A) (A) (A) (A)
                 (A) (A) (A) (A) (A) (A) (A) (A) (A) (A) (A) (A)
                 (A) (A) (A) (A) (A) (A) (A) (A) (A) (A) (A) (A)
                 (A) (A) (A) (A) (A) (A) (A) (A) (A) (A) (A) (A)
                 (A) (A) (A) (A) (A) (A) (A) (A) (A) (A) (A) (A)
                 (A) (A) (A) (A) (A) (A) (A) (A) (A) (A) (A) (A)
                 (A) (A) (A) (A) (A) (A) (A) (A) (A) (A) (A) (A)
                 (A) (A) (A) (A) (A) (A) (A) (A) (A) (A) (A) (A)
                 (A) (A) (A) (A) (A) (A) (A) (A) (A) (A) (A) (A)
                 (A) (A) (A) (A) (A) (A) (A) (A) (A) (A) (A) (A)
                 (A) (A) (A) (A) (A) (A) (A) (A) (A) (A) (A) (A)
                 (A) (A) (A) (A) (A) (A) (A) (A) (A) (A) (A) (A)
                 (A) (A) (A) (A) (A) (A) (A) (A) (A) (A) (A) (A)
                 (A) (A) (A) (A) (A) (A) (A) (A) (A) (A) (A) (A)
                 (A) (A) (A) (A) (A) (A) (A) (A) (A) (A) (A) (A)
                 (A) (A) (A) (A) (A) (A) (A) (A) (A) (A) (A) (A)
                 (A) (A) (A) (A) (A) (A) (A) (A) (A) (A) (A) (A)
                 (A) (A) (A) (A) (A) (A) (A) (A) (A) (A) (A) (A)
                 (A) (A) (A) (A) (A) (A) (A) (A) (A) (A) (A) (A)
                 (A) (A) (A) (A) (A) (A) (A) (A) (A) (A) (A) (A)
                 (A) (A) (A) (A) (A) (A) (A) (A) (A) (A) (A) (A)
                 (A) (A) (A) (A) (A) (A) (A) (A) (A) (A) (A) (A)
                 (A) (A) (A) (A) (A) (A) (A) (A) (A) (A) (A) (A)
                 (A) (A) (A) (A) (A) (A) (A) (A) (A) (A) (A) (A)
                 (A) (A) (A) (A) (A) (A) (A) (A) (A) (A) (A) (A)
                 (A) (A) (A) (A) (A) (A) (A) (A) (A) (A) (A) (A)
                 (A) (A) (A) (A) (A) (A) (A) (A) (A) (A) (A) (A)
                 (A) (A) (A) (A) (A) (A) (A) (A) (A) (A) (A) (A)
                 (A) (A) (A) (A) (A) (A) (A) (A) (A) (A) (A) (A)
                 (A) (A) (A) (A) (A) (A) (A) (A) (A) (A) (A) (A)
                 (A) (A) (A) (A) (A) (A) (A) (A) (A) (A) (A) (A)
                 (A) (A) (A) (A) (A) (A) (A) (A) (A) (A) (A) (A)
                 (A) (A) (A) (A) (A) (A) (A) (A) (A) (A) (A) (A)
                 (A) (A) (A) (A) (A) (A) (A) (A) (A) (A) (A) (A)
                 (A) (A) (A) (A) (A) (A) (A) (A) (A) (A) (A) (A)
                 (A) (A) (A) (A) (A) (A) (A) (A) (A) (A) (A) (A)
                 (A) (A) (A) (A) (A) (A) (A) (A) (A) (A) (A) (A)
                 (A) (A) (A) (A) (A) (A) (A) (A) (A) (A) (A) (A)
                 (A) (A) (A) (A) (A) (A) (A) (A) (A) (A) (A) (A)
                 (A) (A) (A) (A) (A)
 Beta  Orbitals:
       Occupied  (A) (A) (A) (A) (A) (A) (A) (A) (A) (A) (A) (A)
                 (A) (A) (A) (A) (A) (A) (A) (A) (A) (A) (A) (A)
                 (A) (A) (A) (A) (A) (A) (A) (A) (A) (A) (A) (A)
                 (A) (A) (A) (A) (A) (A) (A) (A) (A) (A) (A) (A)
                 (A) (A) (A) (A) (A) (A) (A) (A) (A) (A) (A) (A)
                 (A) (A) (A) (A) (A) (A) (A) (A) (A) (A) (A) (A)
                 (A) (A) (A) (A) (A) (A) (A) (A) (A) (A) (A) (A)
                 (A) (A) (A) (A) (A) (A) (A) (A) (A) (A) (A) (A)
                 (A) (A) (A) (A) (A) (A) (A) (A) (A) (A) (A) (A)
                 (A) (A) (A) (A) (A) (A) (A) (A) (A) (A) (A) (A)
                 (A) (A) (A) (A) (A) (A) (A) (A) (A) (A) (A) (A)
                 (A) (A) (A) (A) (A) (A) (A) (A) (A) (A) (A) (A)
                 (A) (A) (A) (A) (A) (A) (A) (A) (A) (A) (A) (A)
                 (A) (A) (A) (A) (A) (A) (A) (A) (A) (A) (A) (A)
                 (A) (A) (A) (A) (A) (A) (A) (A) (A) (A) (A) (A)
                 (A) (A) (A) (A) (A) (A) (A) (A) (A) (A) (A) (A)
                 (A) (A) (A) (A) (A) (A) (A) (A) (A) (A)
       Virtual   (A) (A) (A) (A) (A) (A) (A) (A) (A) (A) (A) (A)
                 (A) (A) (A) (A) (A) (A) (A) (A) (A) (A) (A) (A)
                 (A) (A) (A) (A) (A) (A) (A) (A) (A) (A) (A) (A)
                 (A) (A) (A) (A) (A) (A) (A) (A) (A) (A) (A) (A)
                 (A) (A) (A) (A) (A) (A) (A) (A) (A) (A) (A) (A)
                 (A) (A) (A) (A) (A) (A) (A) (A) (A) (A) (A) (A)
                 (A) (A) (A) (A) (A) (A) (A) (A) (A) (A) (A) (A)
                 (A) (A) (A) (A) (A) (A) (A) (A) (A) (A) (A) (A)
                 (A) (A) (A) (A) (A) (A) (A) (A) (A) (A) (A) (A)
                 (A) (A) (A) (A) (A) (A) (A) (A) (A) (A) (A) (A)
                 (A) (A) (A) (A) (A) (A) (A) (A) (A) (A) (A) (A)
                 (A) (A) (A) (A) (A) (A) (A) (A) (A) (A) (A) (A)
                 (A) (A) (A) (A) (A) (A) (A) (A) (A) (A) (A) (A)
                 (A) (A) (A) (A) (A) (A) (A) (A) (A) (A) (A) (A)
                 (A) (A) (A) (A) (A) (A) (A) (A) (A) (A) (A) (A)
                 (A) (A) (A) (A) (A) (A) (A) (A) (A) (A) (A) (A)
                 (A) (A) (A) (A) (A) (A) (A) (A) (A) (A) (A) (A)
                 (A) (A) (A) (A) (A) (A) (A) (A) (A) (A) (A) (A)
                 (A) (A) (A) (A) (A) (A) (A) (A) (A) (A) (A) (A)
                 (A) (A) (A) (A) (A) (A) (A) (A) (A) (A) (A) (A)
                 (A) (A) (A) (A) (A) (A) (A) (A) (A) (A) (A) (A)
                 (A) (A) (A) (A) (A) (A) (A) (A) (A) (A) (A) (A)
                 (A) (A) (A) (A) (A) (A) (A) (A) (A) (A) (A) (A)
                 (A) (A) (A) (A) (A) (A) (A) (A) (A) (A) (A) (A)
                 (A) (A) (A) (A) (A) (A) (A) (A) (A) (A) (A) (A)
                 (A) (A) (A) (A) (A) (A) (A) (A) (A) (A) (A) (A)
                 (A) (A) (A) (A) (A) (A) (A) (A) (A) (A) (A) (A)
                 (A) (A) (A) (A) (A) (A) (A) (A) (A) (A) (A) (A)
                 (A) (A) (A) (A) (A) (A) (A) (A) (A) (A) (A) (A)
                 (A) (A) (A) (A) (A) (A) (A) (A) (A) (A) (A) (A)
                 (A) (A) (A) (A) (A) (A) (A) (A) (A) (A) (A) (A)
                 (A) (A) (A) (A) (A) (A) (A) (A) (A) (A) (A) (A)
                 (A) (A) (A) (A) (A) (A) (A) (A) (A) (A) (A) (A)
                 (A) (A) (A) (A) (A) (A) (A) (A) (A) (A) (A) (A)
                 (A) (A) (A) (A) (A) (A) (A) (A) (A) (A) (A) (A)
                 (A) (A) (A) (A) (A) (A) (A) (A) (A) (A) (A) (A)
                 (A) (A) (A) (A) (A) (A) (A) (A) (A) (A) (A) (A)
                 (A) (A) (A) (A) (A) (A) (A) (A) (A) (A) (A) (A)
                 (A) (A) (A) (A) (A) (A) (A) (A) (A) (A) (A) (A)
                 (A) (A) (A) (A) (A) (A) (A) (A) (A) (A) (A) (A)
                 (A) (A) (A) (A) (A) (A) (A) (A) (A) (A) (A) (A)
                 (A) (A) (A) (A) (A) (A) (A) (A) (A) (A) (A) (A)
                 (A) (A) (A) (A) (A) (A) (A) (A) (A) (A) (A) (A)
                 (A) (A) (A) (A) (A) (A) (A) (A) (A) (A) (A) (A)
                 (A) (A) (A) (A) (A) (A) (A) (A) (A) (A) (A) (A)
                 (A) (A) (A) (A) (A) (A) (A) (A) (A) (A) (A) (A)
                 (A) (A) (A) (A) (A) (A) (A) (A) (A) (A) (A) (A)
                 (A) (A) (A) (A) (A) (A) (A) (A) (A) (A) (A) (A)
                 (A) (A) (A) (A) (A) (A) (A) (A) (A) (A) (A) (A)
                 (A) (A) (A) (A) (A) (A) (A) (A) (A) (A) (A) (A)
                 (A) (A) (A) (A) (A) (A) (A) (A) (A) (A) (A) (A)
                 (A) (A) (A) (A) (A) (A) (A) (A) (A) (A) (A) (A)
                 (A) (A) (A) (A) (A) (A) (A) (A) (A) (A) (A) (A)
                 (A) (A) (A) (A) (A) (A) (A) (A) (A) (A) (A) (A)
                 (A) (A) (A) (A) (A) (A) (A) (A) (A) (A) (A) (A)
                 (A) (A) (A) (A) (A) (A) (A) (A) (A) (A) (A) (A)
                 (A) (A) (A) (A) (A) (A) (A) (A) (A) (A) (A) (A)
                 (A) (A) (A) (A) (A) (A) (A) (A) (A) (A) (A) (A)
                 (A) (A) (A) (A) (A) (A) (A) (A) (A) (A) (A) (A)
                 (A) (A) (A) (A) (A) (A) (A) (A) (A) (A) (A) (A)
                 (A) (A) (A) (A) (A) (A) (A) (A) (A) (A) (A) (A)
                 (A) (A) (A) (A) (A) (A) (A) (A) (A) (A) (A) (A)
                 (A) (A) (A) (A) (A) (A) (A) (A) (A) (A) (A) (A)
                 (A) (A) (A) (A) (A) (A) (A) (A) (A) (A) (A) (A)
                 (A) (A) (A) (A) (A) (A) (A) (A) (A) (A) (A) (A)
                 (A) (A) (A) (A) (A) (A) (A) (A) (A) (A) (A) (A)
                 (A) (A) (A) (A) (A) (A) (A) (A) (A) (A) (A) (A)
                 (A) (A) (A) (A) (A) (A) (A) (A) (A) (A) (A) (A)
                 (A) (A) (A) (A) (A) (A) (A) (A) (A) (A) (A) (A)
                 (A) (A) (A) (A) (A) (A) (A) (A) (A) (A) (A) (A)
                 (A) (A) (A) (A) (A) (A) (A) (A) (A) (A) (A) (A)
                 (A) (A) (A) (A) (A) (A) (A) (A) (A) (A) (A) (A)
                 (A) (A) (A) (A) (A) (A) (A) (A) (A) (A) (A) (A)
                 (A) (A) (A) (A) (A) (A) (A) (A) (A) (A) (A) (A)
                 (A) (A) (A) (A) (A) (A) (A) (A) (A) (A) (A) (A)
                 (A) (A) (A) (A) (A) (A) (A) (A) (A) (A) (A) (A)
                 (A) (A) (A) (A) (A) (A) (A) (A) (A) (A) (A) (A)
                 (A) (A) (A) (A) (A) (A) (A) (A) (A) (A) (A) (A)
                 (A) (A) (A) (A) (A) (A) (A) (A) (A) (A) (A) (A)
                 (A) (A) (A) (A) (A) (A) (A) (A) (A) (A) (A) (A)
                 (A) (A) (A) (A) (A) (A) (A) (A) (A) (A) (A) (A)
                 (A) (A) (A) (A) (A) (A) (A) (A) (A) (A) (A) (A)
                 (A) (A) (A) (A) (A) (A) (A) (A) (A) (A) (A) (A)
                 (A) (A) (A) (A) (A) (A) (A) (A) (A) (A) (A) (A)
                 (A) (A) (A) (A) (A) (A) (A) (A) (A) (A) (A) (A)
                 (A) (A) (A) (A) (A) (A) (A) (A) (A) (A) (A) (A)
                 (A) (A) (A) (A) (A) (A) (A) (A) (A) (A) (A) (A)
                 (A) (A) (A) (A) (A) (A) (A) (A) (A) (A) (A) (A)
                 (A) (A) (A) (A) (A) (A) (A) (A) (A) (A) (A) (A)
                 (A) (A) (A) (A) (A) (A) (A) (A) (A) (A) (A) (A)
                 (A) (A) (A) (A) (A) (A) (A) (A) (A) (A) (A) (A)
                 (A) (A) (A) (A) (A) (A) (A) (A) (A) (A) (A) (A)
                 (A) (A) (A) (A) (A) (A) (A) (A) (A) (A) (A) (A)
                 (A) (A) (A) (A) (A) (A) (A) (A) (A) (A) (A) (A)
                 (A) (A) (A) (A) (A) (A) (A) (A) (A) (A) (A) (A)
                 (A) (A) (A) (A) (A) (A) (A) (A) (A) (A) (A) (A)
                 (A) (A) (A) (A) (A) (A) (A) (A) (A) (A) (A) (A)
                 (A) (A) (A) (A) (A) (A) (A) (A) (A) (A) (A) (A)
                 (A) (A) (A) (A) (A) (A) (A) (A) (A) (A) (A) (A)
                 (A) (A) (A) (A) (A) (A) (A) (A) (A) (A) (A) (A)
                 (A) (A) (A) (A) (A) (A) (A) (A) (A) (A) (A) (A)
                 (A) (A) (A) (A) (A) (A) (A) (A) (A) (A) (A) (A)
                 (A) (A) (A) (A) (A) (A) (A) (A) (A) (A) (A) (A)
                 (A) (A) (A) (A) (A) (A) (A) (A) (A) (A) (A) (A)
                 (A) (A) (A) (A) (A) (A) (A) (A) (A) (A) (A) (A)
                 (A) (A) (A) (A) (A) (A) (A) (A) (A) (A) (A) (A)
                 (A) (A) (A) (A) (A) (A) (A) (A) (A) (A) (A) (A)
                 (A) (A) (A) (A) (A) (A) (A) (A) (A) (A) (A) (A)
                 (A) (A) (A) (A) (A) (A) (A) (A) (A) (A) (A) (A)
                 (A) (A) (A) (A) (A) (A) (A) (A) (A) (A) (A) (A)
                 (A) (A) (A) (A) (A) (A) (A) (A) (A) (A) (A) (A)
                 (A) (A) (A) (A) (A) (A) (A) (A) (A) (A) (A) (A)
                 (A) (A) (A) (A) (A) (A) (A) (A) (A) (A) (A) (A)
                 (A) (A) (A) (A) (A) (A) (A) (A) (A) (A) (A) (A)
                 (A) (A) (A) (A) (A) (A) (A) (A) (A) (A) (A) (A)
                 (A) (A) (A) (A) (A) (A) (A) (A) (A) (A) (A) (A)
                 (A) (A) (A) (A) (A) (A) (A) (A) (A) (A) (A) (A)
                 (A) (A) (A) (A) (A) (A) (A) (A) (A) (A) (A) (A)
                 (A) (A) (A) (A) (A) (A) (A) (A) (A) (A) (A) (A)
                 (A) (A) (A) (A) (A) (A) (A) (A) (A) (A) (A) (A)
                 (A) (A) (A) (A) (A) (A) (A) (A) (A) (A) (A) (A)
                 (A) (A) (A) (A) (A) (A) (A) (A) (A) (A) (A) (A)
                 (A) (A) (A) (A) (A) (A) (A) (A) (A) (A) (A) (A)
                 (A) (A) (A) (A) (A) (A) (A) (A) (A) (A) (A) (A)
                 (A) (A) (A) (A) (A) (A) (A) (A) (A) (A) (A) (A)
                 (A) (A) (A) (A) (A) (A) (A) (A) (A) (A) (A) (A)
                 (A) (A) (A) (A) (A) (A) (A) (A) (A) (A) (A) (A)
                 (A) (A) (A) (A) (A) (A) (A) (A) (A) (A) (A) (A)
                 (A) (A) (A) (A) (A) (A) (A) (A) (A) (A) (A) (A)
                 (A) (A) (A) (A) (A) (A) (A) (A) (A) (A) (A) (A)
                 (A) (A) (A) (A) (A) (A) (A) (A) (A) (A) (A) (A)
                 (A) (A) (A) (A) (A) (A) (A) (A) (A) (A) (A) (A)
                 (A) (A) (A) (A) (A) (A) (A) (A) (A) (A) (A) (A)
                 (A) (A) (A) (A) (A) (A) (A) (A) (A) (A) (A) (A)
                 (A) (A) (A) (A) (A) (A) (A) (A) (A) (A) (A) (A)
                 (A) (A) (A) (A) (A) (A) (A) (A) (A) (A) (A) (A)
                 (A) (A) (A) (A) (A) (A) (A) (A) (A) (A) (A) (A)
                 (A) (A) (A) (A) (A) (A) (A) (A) (A) (A) (A) (A)
                 (A) (A) (A) (A) (A) (A) (A) (A) (A) (A) (A) (A)
                 (A) (A) (A) (A) (A) (A) (A) (A) (A) (A) (A) (A)
                 (A) (A) (A) (A) (A) (A) (A) (A) (A) (A) (A) (A)
                 (A) (A) (A) (A) (A) (A) (A) (A) (A) (A) (A) (A)
                 (A) (A) (A) (A) (A) (A) (A) (A) (A) (A) (A) (A)
                 (A) (A) (A) (A) (A) (A) (A) (A) (A) (A) (A) (A)
                 (A) (A) (A) (A) (A) (A) (A) (A) (A)
 The electronic state is 5-A.
 Alpha  occ. eigenvalues -- -256.39782 -89.03693 -30.18482 -26.01751 -26.01702
 Alpha  occ. eigenvalues --  -25.98892 -19.26858 -19.25699 -19.16565 -19.15599
 Alpha  occ. eigenvalues --  -14.44398 -14.40708 -14.36897 -14.36849 -14.36799
 Alpha  occ. eigenvalues --  -14.36745 -10.34882 -10.33438 -10.27824 -10.26974
 Alpha  occ. eigenvalues --  -10.24263 -10.24254 -10.24071 -10.24052 -10.23972
 Alpha  occ. eigenvalues --  -10.23893 -10.23827 -10.23774 -10.23548 -10.23007
 Alpha  occ. eigenvalues --  -10.22722 -10.22058 -10.21832 -10.21317 -10.21019
 Alpha  occ. eigenvalues --  -10.20850 -10.20734 -10.20666 -10.20546 -10.20425
 Alpha  occ. eigenvalues --  -10.20328 -10.20211 -10.20109 -10.19959 -10.19757
 Alpha  occ. eigenvalues --  -10.19746 -10.19622 -10.19101 -10.18964 -10.18382
 Alpha  occ. eigenvalues --  -10.18323 -10.18176 -10.18065 -10.17709 -10.17554
 Alpha  occ. eigenvalues --  -10.17069 -10.16540  -8.01547  -5.95174  -5.94888
 Alpha  occ. eigenvalues --   -5.94400  -3.54322  -2.31870  -2.31684  -2.25913
 Alpha  occ. eigenvalues --   -1.16659  -1.16328  -1.09164  -1.00700  -1.00499
 Alpha  occ. eigenvalues --   -0.98655  -0.97790  -0.97390  -0.96571  -0.93894
 Alpha  occ. eigenvalues --   -0.86008  -0.84768  -0.84404  -0.83651  -0.83538
 Alpha  occ. eigenvalues --   -0.82258  -0.81990  -0.81531  -0.81043  -0.80072
 Alpha  occ. eigenvalues --   -0.79461  -0.79051  -0.77729  -0.77207  -0.75599
 Alpha  occ. eigenvalues --   -0.74799  -0.74533  -0.73922  -0.72945  -0.72334
 Alpha  occ. eigenvalues --   -0.70585  -0.70112  -0.69826  -0.68988  -0.68631
 Alpha  occ. eigenvalues --   -0.67219  -0.66787  -0.65990  -0.65855  -0.65619
 Alpha  occ. eigenvalues --   -0.62860  -0.62769  -0.62399  -0.59731  -0.58997
 Alpha  occ. eigenvalues --   -0.58929  -0.56476  -0.55729  -0.55408  -0.54467
 Alpha  occ. eigenvalues --   -0.53294  -0.52973  -0.52462  -0.51651  -0.51401
 Alpha  occ. eigenvalues --   -0.50977  -0.50805  -0.50671  -0.50360  -0.50010
 Alpha  occ. eigenvalues --   -0.49816  -0.49236  -0.49150  -0.48573  -0.48123
 Alpha  occ. eigenvalues --   -0.47892  -0.47847  -0.47215  -0.46865  -0.46608
 Alpha  occ. eigenvalues --   -0.46342  -0.46218  -0.45885  -0.45648  -0.45460
 Alpha  occ. eigenvalues --   -0.45447  -0.45222  -0.44914  -0.44894  -0.44518
 Alpha  occ. eigenvalues --   -0.44145  -0.43831  -0.43561  -0.43482  -0.43423
 Alpha  occ. eigenvalues --   -0.42907  -0.42835  -0.42586  -0.42334  -0.41563
 Alpha  occ. eigenvalues --   -0.41508  -0.40631  -0.40407  -0.40341  -0.40036
 Alpha  occ. eigenvalues --   -0.39727  -0.39709  -0.39547  -0.39145  -0.39105
 Alpha  occ. eigenvalues --   -0.38833  -0.38415  -0.38335  -0.38053  -0.37758
 Alpha  occ. eigenvalues --   -0.37421  -0.37168  -0.36856  -0.36735  -0.36481
 Alpha  occ. eigenvalues --   -0.35565  -0.35192  -0.34603  -0.34555  -0.34214
 Alpha  occ. eigenvalues --   -0.33726  -0.33662  -0.33554  -0.33343  -0.31403
 Alpha  occ. eigenvalues --   -0.31151  -0.30920  -0.30567  -0.30431  -0.29649
 Alpha  occ. eigenvalues --   -0.29276  -0.29029  -0.27581  -0.27206  -0.26671
 Alpha  occ. eigenvalues --   -0.26330  -0.26168  -0.26039  -0.24147  -0.23801
 Alpha  occ. eigenvalues --   -0.23231  -0.22965  -0.20804  -0.20142  -0.10948
 Alpha  occ. eigenvalues --   -0.10885
 Alpha virt. eigenvalues --   -0.05181  -0.04610  -0.02420  -0.00512   0.00621
 Alpha virt. eigenvalues --    0.01151   0.01336   0.02412   0.02719   0.03242
 Alpha virt. eigenvalues --    0.03325   0.04098   0.04328   0.04547   0.04664
 Alpha virt. eigenvalues --    0.05571   0.05947   0.06578   0.06695   0.06944
 Alpha virt. eigenvalues --    0.07358   0.07540   0.07663   0.08243   0.08285
 Alpha virt. eigenvalues --    0.08700   0.09059   0.09416   0.09535   0.09887
 Alpha virt. eigenvalues --    0.10110   0.10536   0.10587   0.11357   0.11468
 Alpha virt. eigenvalues --    0.11572   0.11864   0.12080   0.12172   0.12391
 Alpha virt. eigenvalues --    0.12662   0.12958   0.13117   0.13387   0.13585
 Alpha virt. eigenvalues --    0.13922   0.14047   0.14068   0.14315   0.14529
 Alpha virt. eigenvalues --    0.14640   0.14757   0.15063   0.15224   0.15345
 Alpha virt. eigenvalues --    0.15426   0.15568   0.15728   0.16012   0.16109
 Alpha virt. eigenvalues --    0.16311   0.16588   0.16754   0.16955   0.17271
 Alpha virt. eigenvalues --    0.17350   0.17510   0.17864   0.18090   0.18288
 Alpha virt. eigenvalues --    0.18330   0.18570   0.19055   0.19421   0.19723
 Alpha virt. eigenvalues --    0.19934   0.20012   0.20182   0.20449   0.20640
 Alpha virt. eigenvalues --    0.20721   0.20792   0.20898   0.21092   0.21523
 Alpha virt. eigenvalues --    0.21762   0.22022   0.22037   0.22360   0.22709
 Alpha virt. eigenvalues --    0.22908   0.23128   0.23295   0.23357   0.23671
 Alpha virt. eigenvalues --    0.23843   0.23999   0.24050   0.24314   0.24461
 Alpha virt. eigenvalues --    0.24740   0.25007   0.25260   0.25371   0.25543
 Alpha virt. eigenvalues --    0.25691   0.25840   0.26121   0.26623   0.26677
 Alpha virt. eigenvalues --    0.26907   0.27045   0.27368   0.27818   0.28101
 Alpha virt. eigenvalues --    0.28224   0.28428   0.28689   0.28897   0.29191
 Alpha virt. eigenvalues --    0.29397   0.29526   0.30085   0.30135   0.30203
 Alpha virt. eigenvalues --    0.30533   0.30645   0.30869   0.31027   0.31336
 Alpha virt. eigenvalues --    0.31381   0.31738   0.31868   0.31963   0.32155
 Alpha virt. eigenvalues --    0.32291   0.32417   0.32922   0.33064   0.33921
 Alpha virt. eigenvalues --    0.33962   0.34170   0.34207   0.34515   0.34649
 Alpha virt. eigenvalues --    0.34745   0.35111   0.35201   0.35297   0.35718
 Alpha virt. eigenvalues --    0.36008   0.36203   0.36260   0.36581   0.36969
 Alpha virt. eigenvalues --    0.37195   0.37302   0.37391   0.37798   0.37940
 Alpha virt. eigenvalues --    0.38319   0.38466   0.38546   0.38689   0.39088
 Alpha virt. eigenvalues --    0.39177   0.39420   0.39448   0.39786   0.40170
 Alpha virt. eigenvalues --    0.40372   0.40553   0.40608   0.40947   0.41078
 Alpha virt. eigenvalues --    0.41153   0.41527   0.41672   0.41973   0.42236
 Alpha virt. eigenvalues --    0.42368   0.42738   0.42884   0.43022   0.43179
 Alpha virt. eigenvalues --    0.43571   0.43768   0.43834   0.44011   0.44180
 Alpha virt. eigenvalues --    0.44419   0.44607   0.44844   0.44999   0.45211
 Alpha virt. eigenvalues --    0.45421   0.45644   0.45818   0.45903   0.46152
 Alpha virt. eigenvalues --    0.46340   0.46427   0.46731   0.46886   0.47183
 Alpha virt. eigenvalues --    0.47391   0.47679   0.47881   0.47977   0.48185
 Alpha virt. eigenvalues --    0.48284   0.48516   0.48574   0.48832   0.48936
 Alpha virt. eigenvalues --    0.49042   0.49092   0.49267   0.49503   0.49593
 Alpha virt. eigenvalues --    0.49734   0.49969   0.50302   0.50421   0.50559
 Alpha virt. eigenvalues --    0.50640   0.50999   0.51086   0.51316   0.51439
 Alpha virt. eigenvalues --    0.51635   0.51765   0.51891   0.52065   0.52339
 Alpha virt. eigenvalues --    0.52482   0.52617   0.52756   0.52906   0.53135
 Alpha virt. eigenvalues --    0.53219   0.53339   0.53414   0.53649   0.54021
 Alpha virt. eigenvalues --    0.54109   0.54191   0.54319   0.54471   0.54893
 Alpha virt. eigenvalues --    0.54924   0.55097   0.55254   0.55327   0.55772
 Alpha virt. eigenvalues --    0.55818   0.55855   0.56122   0.56310   0.56552
 Alpha virt. eigenvalues --    0.56713   0.56954   0.57353   0.57608   0.57730
 Alpha virt. eigenvalues --    0.58003   0.58009   0.58250   0.58555   0.58721
 Alpha virt. eigenvalues --    0.59169   0.59308   0.59491   0.59672   0.59749
 Alpha virt. eigenvalues --    0.60144   0.60531   0.60715   0.60979   0.61292
 Alpha virt. eigenvalues --    0.61634   0.61764   0.62043   0.62250   0.62638
 Alpha virt. eigenvalues --    0.62915   0.62976   0.63395   0.63763   0.64093
 Alpha virt. eigenvalues --    0.64223   0.64400   0.64496   0.64745   0.64913
 Alpha virt. eigenvalues --    0.64971   0.65418   0.65608   0.65883   0.66159
 Alpha virt. eigenvalues --    0.66366   0.66457   0.66574   0.66969   0.67211
 Alpha virt. eigenvalues --    0.67584   0.67787   0.68094   0.68467   0.68749
 Alpha virt. eigenvalues --    0.68844   0.69332   0.69425   0.69954   0.70383
 Alpha virt. eigenvalues --    0.70640   0.70791   0.71027   0.71512   0.71568
 Alpha virt. eigenvalues --    0.71862   0.71947   0.72185   0.72677   0.72896
 Alpha virt. eigenvalues --    0.73136   0.73345   0.73457   0.73873   0.74183
 Alpha virt. eigenvalues --    0.74230   0.74712   0.74834   0.75174   0.75248
 Alpha virt. eigenvalues --    0.75715   0.75886   0.76141   0.76650   0.76777
 Alpha virt. eigenvalues --    0.76961   0.77243   0.77442   0.77892   0.78005
 Alpha virt. eigenvalues --    0.78278   0.78499   0.78754   0.78845   0.79052
 Alpha virt. eigenvalues --    0.79272   0.79514   0.79558   0.79965   0.80167
 Alpha virt. eigenvalues --    0.80712   0.81080   0.81323   0.81881   0.82086
 Alpha virt. eigenvalues --    0.82547   0.82776   0.83048   0.83140   0.83380
 Alpha virt. eigenvalues --    0.83742   0.84055   0.84279   0.84602   0.85074
 Alpha virt. eigenvalues --    0.85254   0.85413   0.85681   0.85710   0.86035
 Alpha virt. eigenvalues --    0.86610   0.86801   0.87321   0.87333   0.87637
 Alpha virt. eigenvalues --    0.88081   0.88224   0.88425   0.88806   0.89079
 Alpha virt. eigenvalues --    0.89244   0.89672   0.89973   0.90227   0.90666
 Alpha virt. eigenvalues --    0.90722   0.90912   0.91451   0.91725   0.92224
 Alpha virt. eigenvalues --    0.92287   0.92597   0.92947   0.93002   0.93366
 Alpha virt. eigenvalues --    0.93596   0.93921   0.94098   0.94395   0.94695
 Alpha virt. eigenvalues --    0.94820   0.95056   0.95297   0.95505   0.95753
 Alpha virt. eigenvalues --    0.95920   0.96313   0.96798   0.97028   0.97493
 Alpha virt. eigenvalues --    0.97622   0.97921   0.98087   0.98579   0.98727
 Alpha virt. eigenvalues --    0.99134   0.99429   0.99713   0.99987   1.00167
 Alpha virt. eigenvalues --    1.00303   1.00409   1.00579   1.01040   1.01093
 Alpha virt. eigenvalues --    1.01471   1.01589   1.02180   1.02558   1.02784
 Alpha virt. eigenvalues --    1.03008   1.03188   1.03454   1.03643   1.04157
 Alpha virt. eigenvalues --    1.04241   1.04653   1.04995   1.05048   1.05268
 Alpha virt. eigenvalues --    1.05798   1.06019   1.06217   1.06648   1.06743
 Alpha virt. eigenvalues --    1.07151   1.07409   1.07621   1.07793   1.08256
 Alpha virt. eigenvalues --    1.08396   1.08604   1.08993   1.09310   1.09674
 Alpha virt. eigenvalues --    1.09722   1.10234   1.10461   1.10976   1.11017
 Alpha virt. eigenvalues --    1.11754   1.12032   1.12294   1.12674   1.12726
 Alpha virt. eigenvalues --    1.13174   1.13614   1.13940   1.14567   1.14876
 Alpha virt. eigenvalues --    1.14974   1.15351   1.15659   1.15847   1.16133
 Alpha virt. eigenvalues --    1.16865   1.17004   1.17075   1.17421   1.17812
 Alpha virt. eigenvalues --    1.17898   1.18651   1.19063   1.19289   1.19543
 Alpha virt. eigenvalues --    1.19775   1.20007   1.20366   1.20739   1.21043
 Alpha virt. eigenvalues --    1.21138   1.21727   1.22321   1.22933   1.23094
 Alpha virt. eigenvalues --    1.23357   1.23665   1.24231   1.24373   1.24712
 Alpha virt. eigenvalues --    1.24966   1.25266   1.25656   1.25910   1.26098
 Alpha virt. eigenvalues --    1.26660   1.26743   1.27065   1.27435   1.27511
 Alpha virt. eigenvalues --    1.27883   1.28243   1.28643   1.29171   1.29540
 Alpha virt. eigenvalues --    1.29783   1.30084   1.30335   1.30757   1.30952
 Alpha virt. eigenvalues --    1.31136   1.31309   1.31780   1.31999   1.32741
 Alpha virt. eigenvalues --    1.32890   1.33156   1.33764   1.33841   1.34120
 Alpha virt. eigenvalues --    1.34379   1.35059   1.35496   1.35728   1.35944
 Alpha virt. eigenvalues --    1.36468   1.37134   1.37545   1.37705   1.37902
 Alpha virt. eigenvalues --    1.38587   1.38899   1.39744   1.39776   1.40175
 Alpha virt. eigenvalues --    1.40892   1.40998   1.41451   1.41779   1.42220
 Alpha virt. eigenvalues --    1.42978   1.43382   1.43775   1.44392   1.44723
 Alpha virt. eigenvalues --    1.44980   1.45372   1.45963   1.46128   1.46874
 Alpha virt. eigenvalues --    1.47048   1.47838   1.48026   1.48249   1.48794
 Alpha virt. eigenvalues --    1.49035   1.49248   1.49665   1.49751   1.50209
 Alpha virt. eigenvalues --    1.50340   1.50616   1.50993   1.51101   1.51277
 Alpha virt. eigenvalues --    1.51681   1.51890   1.52163   1.52283   1.52388
 Alpha virt. eigenvalues --    1.52683   1.52831   1.53370   1.53469   1.53613
 Alpha virt. eigenvalues --    1.54120   1.54241   1.54353   1.54933   1.55011
 Alpha virt. eigenvalues --    1.55431   1.55661   1.56105   1.56172   1.56275
 Alpha virt. eigenvalues --    1.56553   1.57057   1.57271   1.57648   1.57737
 Alpha virt. eigenvalues --    1.58084   1.58268   1.58551   1.58952   1.59260
 Alpha virt. eigenvalues --    1.59304   1.59531   1.59735   1.59955   1.60878
 Alpha virt. eigenvalues --    1.61142   1.61248   1.61611   1.61875   1.62316
 Alpha virt. eigenvalues --    1.62470   1.62899   1.63234   1.63270   1.63398
 Alpha virt. eigenvalues --    1.63784   1.64061   1.64495   1.64575   1.64694
 Alpha virt. eigenvalues --    1.64834   1.65280   1.65512   1.65659   1.65827
 Alpha virt. eigenvalues --    1.65900   1.66233   1.66426   1.66748   1.67125
 Alpha virt. eigenvalues --    1.67399   1.67704   1.67807   1.68006   1.68227
 Alpha virt. eigenvalues --    1.68337   1.68435   1.69090   1.69420   1.69608
 Alpha virt. eigenvalues --    1.69677   1.70436   1.70513   1.70665   1.71023
 Alpha virt. eigenvalues --    1.71254   1.71458   1.71561   1.71770   1.72157
 Alpha virt. eigenvalues --    1.72791   1.72997   1.73413   1.73552   1.73954
 Alpha virt. eigenvalues --    1.74137   1.74463   1.74710   1.74972   1.75397
 Alpha virt. eigenvalues --    1.75606   1.75967   1.76649   1.76949   1.77360
 Alpha virt. eigenvalues --    1.77537   1.78132   1.78183   1.78458   1.78520
 Alpha virt. eigenvalues --    1.79122   1.79275   1.80029   1.80290   1.80939
 Alpha virt. eigenvalues --    1.81136   1.81191   1.81819   1.82303   1.82483
 Alpha virt. eigenvalues --    1.83059   1.83243   1.84183   1.84405   1.84806
 Alpha virt. eigenvalues --    1.85061   1.85348   1.86223   1.86443   1.86614
 Alpha virt. eigenvalues --    1.86939   1.87047   1.87213   1.87355   1.87922
 Alpha virt. eigenvalues --    1.88287   1.88627   1.89268   1.89555   1.89780
 Alpha virt. eigenvalues --    1.90193   1.90767   1.91290   1.91358   1.91581
 Alpha virt. eigenvalues --    1.92360   1.92536   1.92618   1.93038   1.93380
 Alpha virt. eigenvalues --    1.93574   1.93797   1.94306   1.94566   1.95217
 Alpha virt. eigenvalues --    1.95247   1.95952   1.96068   1.96491   1.96631
 Alpha virt. eigenvalues --    1.96927   1.97110   1.97645   1.97806   1.98238
 Alpha virt. eigenvalues --    1.98374   1.98774   1.98838   1.99057   1.99751
 Alpha virt. eigenvalues --    1.99831   2.00135   2.00634   2.01058   2.01628
 Alpha virt. eigenvalues --    2.01840   2.02080   2.02421   2.02886   2.02991
 Alpha virt. eigenvalues --    2.03366   2.03406   2.03795   2.04236   2.04421
 Alpha virt. eigenvalues --    2.04804   2.05210   2.05430   2.05732   2.05965
 Alpha virt. eigenvalues --    2.06609   2.07052   2.07281   2.07358   2.07911
 Alpha virt. eigenvalues --    2.08498   2.08875   2.09188   2.09475   2.09817
 Alpha virt. eigenvalues --    2.10084   2.10727   2.10904   2.11326   2.12177
 Alpha virt. eigenvalues --    2.12484   2.13045   2.13440   2.14011   2.14085
 Alpha virt. eigenvalues --    2.14411   2.14796   2.15326   2.15910   2.16153
 Alpha virt. eigenvalues --    2.16281   2.16888   2.17178   2.17460   2.17576
 Alpha virt. eigenvalues --    2.17736   2.18737   2.18933   2.19272   2.19681
 Alpha virt. eigenvalues --    2.19952   2.20137   2.20238   2.20705   2.21179
 Alpha virt. eigenvalues --    2.21542   2.21688   2.22097   2.22534   2.22713
 Alpha virt. eigenvalues --    2.23024   2.23173   2.23730   2.24192   2.24220
 Alpha virt. eigenvalues --    2.24906   2.25071   2.25279   2.25611   2.26033
 Alpha virt. eigenvalues --    2.26499   2.26957   2.27123   2.27699   2.27926
 Alpha virt. eigenvalues --    2.28069   2.28501   2.29105   2.29563   2.29834
 Alpha virt. eigenvalues --    2.30321   2.30498   2.30718   2.30869   2.31377
 Alpha virt. eigenvalues --    2.31554   2.31654   2.31791   2.32397   2.32808
 Alpha virt. eigenvalues --    2.33331   2.33585   2.34183   2.34575   2.34908
 Alpha virt. eigenvalues --    2.35187   2.35841   2.35989   2.36094   2.36702
 Alpha virt. eigenvalues --    2.37223   2.37355   2.37498   2.37985   2.38488
 Alpha virt. eigenvalues --    2.38651   2.39154   2.39732   2.40260   2.40734
 Alpha virt. eigenvalues --    2.41158   2.41477   2.41808   2.42203   2.42773
 Alpha virt. eigenvalues --    2.43268   2.43791   2.44079   2.44332   2.44769
 Alpha virt. eigenvalues --    2.45241   2.45628   2.46253   2.46331   2.46857
 Alpha virt. eigenvalues --    2.47182   2.47303   2.47998   2.48155   2.48671
 Alpha virt. eigenvalues --    2.48981   2.49754   2.50155   2.50323   2.50520
 Alpha virt. eigenvalues --    2.50925   2.51114   2.51425   2.51700   2.52020
 Alpha virt. eigenvalues --    2.52476   2.53338   2.53567   2.53812   2.54141
 Alpha virt. eigenvalues --    2.54228   2.54910   2.55203   2.55839   2.55865
 Alpha virt. eigenvalues --    2.56239   2.56626   2.56960   2.57275   2.57850
 Alpha virt. eigenvalues --    2.58385   2.58636   2.59013   2.59524   2.59767
 Alpha virt. eigenvalues --    2.60265   2.60359   2.60836   2.61185   2.61242
 Alpha virt. eigenvalues --    2.61587   2.62216   2.62905   2.63065   2.63707
 Alpha virt. eigenvalues --    2.63890   2.63962   2.64690   2.64860   2.65161
 Alpha virt. eigenvalues --    2.65896   2.66115   2.66520   2.66966   2.67204
 Alpha virt. eigenvalues --    2.67760   2.67929   2.68039   2.68426   2.68788
 Alpha virt. eigenvalues --    2.69621   2.69879   2.70046   2.70345   2.70732
 Alpha virt. eigenvalues --    2.71086   2.71489   2.71774   2.72287   2.72557
 Alpha virt. eigenvalues --    2.72831   2.73201   2.73354   2.73704   2.74145
 Alpha virt. eigenvalues --    2.74582   2.74718   2.74887   2.75465   2.75605
 Alpha virt. eigenvalues --    2.75951   2.76454   2.76899   2.77168   2.77229
 Alpha virt. eigenvalues --    2.77660   2.77857   2.78203   2.78272   2.79107
 Alpha virt. eigenvalues --    2.79204   2.79413   2.79709   2.79852   2.80441
 Alpha virt. eigenvalues --    2.80505   2.80708   2.80963   2.81213   2.81430
 Alpha virt. eigenvalues --    2.81902   2.82087   2.82569   2.83063   2.83177
 Alpha virt. eigenvalues --    2.83525   2.83625   2.83975   2.84329   2.84521
 Alpha virt. eigenvalues --    2.84967   2.85202   2.85506   2.85821   2.86114
 Alpha virt. eigenvalues --    2.86541   2.86820   2.87159   2.87353   2.87360
 Alpha virt. eigenvalues --    2.87597   2.88037   2.88506   2.88777   2.88928
 Alpha virt. eigenvalues --    2.89243   2.89549   2.89876   2.90154   2.90253
 Alpha virt. eigenvalues --    2.90596   2.90730   2.91300   2.91567   2.91810
 Alpha virt. eigenvalues --    2.92007   2.92061   2.92384   2.92678   2.92916
 Alpha virt. eigenvalues --    2.93207   2.93451   2.93559   2.93927   2.94410
 Alpha virt. eigenvalues --    2.94560   2.94872   2.95076   2.95493   2.95988
 Alpha virt. eigenvalues --    2.96325   2.96467   2.96880   2.97317   2.97543
 Alpha virt. eigenvalues --    2.97867   2.97927   2.98219   2.98441   2.98575
 Alpha virt. eigenvalues --    2.98752   2.98946   2.99462   2.99528   3.00138
 Alpha virt. eigenvalues --    3.00222   3.00266   3.00487   3.00863   3.01237
 Alpha virt. eigenvalues --    3.01522   3.01834   3.02031   3.02302   3.02558
 Alpha virt. eigenvalues --    3.02607   3.03002   3.03383   3.03444   3.03984
 Alpha virt. eigenvalues --    3.04490   3.04891   3.04964   3.05389   3.05896
 Alpha virt. eigenvalues --    3.05971   3.06255   3.06338   3.07007   3.07207
 Alpha virt. eigenvalues --    3.07377   3.07777   3.08179   3.08365   3.08510
 Alpha virt. eigenvalues --    3.08920   3.09184   3.09428   3.09659   3.09864
 Alpha virt. eigenvalues --    3.10082   3.10271   3.10638   3.10942   3.11291
 Alpha virt. eigenvalues --    3.11444   3.11639   3.11925   3.12087   3.12550
 Alpha virt. eigenvalues --    3.12788   3.12946   3.13584   3.13749   3.14116
 Alpha virt. eigenvalues --    3.14174   3.14358   3.14910   3.15273   3.15495
 Alpha virt. eigenvalues --    3.15613   3.15962   3.16007   3.16518   3.16929
 Alpha virt. eigenvalues --    3.17153   3.17461   3.17527   3.17729   3.17966
 Alpha virt. eigenvalues --    3.18269   3.18663   3.18892   3.19127   3.19289
 Alpha virt. eigenvalues --    3.19415   3.19716   3.19813   3.19954   3.20698
 Alpha virt. eigenvalues --    3.20833   3.21272   3.21708   3.21890   3.22345
 Alpha virt. eigenvalues --    3.22571   3.22838   3.23111   3.23403   3.23522
 Alpha virt. eigenvalues --    3.23765   3.24221   3.24376   3.24802   3.25068
 Alpha virt. eigenvalues --    3.25286   3.25492   3.25660   3.26065   3.26177
 Alpha virt. eigenvalues --    3.26478   3.26757   3.26949   3.27675   3.27992
 Alpha virt. eigenvalues --    3.28107   3.28549   3.28823   3.29003   3.29092
 Alpha virt. eigenvalues --    3.29274   3.29444   3.29795   3.30173   3.30519
 Alpha virt. eigenvalues --    3.30846   3.31036   3.31310   3.31754   3.32039
 Alpha virt. eigenvalues --    3.32310   3.32356   3.32654   3.32889   3.33241
 Alpha virt. eigenvalues --    3.33389   3.33662   3.33857   3.34096   3.34346
 Alpha virt. eigenvalues --    3.34718   3.34921   3.35071   3.35337   3.35793
 Alpha virt. eigenvalues --    3.36038   3.36083   3.36368   3.36621   3.36768
 Alpha virt. eigenvalues --    3.37022   3.37405   3.37793   3.37804   3.38135
 Alpha virt. eigenvalues --    3.38275   3.38602   3.38816   3.38942   3.39279
 Alpha virt. eigenvalues --    3.39505   3.39658   3.39872   3.40156   3.40410
 Alpha virt. eigenvalues --    3.40599   3.40834   3.41106   3.41314   3.41339
 Alpha virt. eigenvalues --    3.41618   3.41795   3.42370   3.42621   3.42800
 Alpha virt. eigenvalues --    3.42990   3.43065   3.43142   3.43606   3.43978
 Alpha virt. eigenvalues --    3.44088   3.44362   3.44568   3.44887   3.45077
 Alpha virt. eigenvalues --    3.45398   3.45530   3.45768   3.46291   3.46630
 Alpha virt. eigenvalues --    3.46753   3.46948   3.47357   3.47619   3.47895
 Alpha virt. eigenvalues --    3.48027   3.48093   3.48426   3.48785   3.49157
 Alpha virt. eigenvalues --    3.49325   3.49746   3.49758   3.50240   3.50817
 Alpha virt. eigenvalues --    3.50899   3.51083   3.51432   3.51794   3.51919
 Alpha virt. eigenvalues --    3.52621   3.52732   3.53093   3.53261   3.53700
 Alpha virt. eigenvalues --    3.53955   3.54422   3.54810   3.55027   3.55657
 Alpha virt. eigenvalues --    3.56038   3.56403   3.56631   3.56747   3.56879
 Alpha virt. eigenvalues --    3.57316   3.57528   3.57888   3.58765   3.58898
 Alpha virt. eigenvalues --    3.59254   3.59349   3.59704   3.59809   3.60102
 Alpha virt. eigenvalues --    3.60982   3.61165   3.61480   3.61973   3.62270
 Alpha virt. eigenvalues --    3.62404   3.62801   3.63284   3.63630   3.64241
 Alpha virt. eigenvalues --    3.64529   3.64877   3.65144   3.65452   3.65913
 Alpha virt. eigenvalues --    3.66123   3.66337   3.67198   3.67410   3.67631
 Alpha virt. eigenvalues --    3.68536   3.68826   3.68987   3.69379   3.69733
 Alpha virt. eigenvalues --    3.70222   3.70575   3.70755   3.71234   3.71896
 Alpha virt. eigenvalues --    3.71995   3.72324   3.72966   3.73617   3.73837
 Alpha virt. eigenvalues --    3.74643   3.74942   3.75280   3.75494   3.75839
 Alpha virt. eigenvalues --    3.76224   3.76474   3.76974   3.77179   3.77481
 Alpha virt. eigenvalues --    3.77773   3.78257   3.78539   3.79293   3.79695
 Alpha virt. eigenvalues --    3.80149   3.80283   3.80447   3.80792   3.81170
 Alpha virt. eigenvalues --    3.81390   3.81777   3.82136   3.82724   3.82994
 Alpha virt. eigenvalues --    3.83147   3.83584   3.84000   3.84387   3.84970
 Alpha virt. eigenvalues --    3.85045   3.85111   3.85646   3.85953   3.86652
 Alpha virt. eigenvalues --    3.87009   3.87654   3.87985   3.88505   3.89291
 Alpha virt. eigenvalues --    3.89687   3.89792   3.90841   3.91028   3.91247
 Alpha virt. eigenvalues --    3.91526   3.91965   3.92210   3.92509   3.93110
 Alpha virt. eigenvalues --    3.93342   3.93532   3.94036   3.94841   3.95467
 Alpha virt. eigenvalues --    3.95531   3.96526   3.97005   3.97624   3.98422
 Alpha virt. eigenvalues --    3.98631   3.99253   3.99691   4.00431   4.00900
 Alpha virt. eigenvalues --    4.00986   4.01421   4.02131   4.02614   4.02909
 Alpha virt. eigenvalues --    4.03436   4.03823   4.03902   4.04083   4.05049
 Alpha virt. eigenvalues --    4.05303   4.06002   4.06669   4.07061   4.07478
 Alpha virt. eigenvalues --    4.07498   4.07837   4.08127   4.08735   4.09739
 Alpha virt. eigenvalues --    4.09781   4.10260   4.10503   4.11278   4.11654
 Alpha virt. eigenvalues --    4.12015   4.12791   4.13542   4.13789   4.14661
 Alpha virt. eigenvalues --    4.15202   4.16042   4.16577   4.17304   4.18117
 Alpha virt. eigenvalues --    4.18306   4.19223   4.20046   4.20403   4.20583
 Alpha virt. eigenvalues --    4.21552   4.21875   4.22300   4.23051   4.23420
 Alpha virt. eigenvalues --    4.23810   4.24161   4.24486   4.25677   4.25857
 Alpha virt. eigenvalues --    4.26458   4.26942   4.27129   4.27604   4.27950
 Alpha virt. eigenvalues --    4.28074   4.28988   4.29953   4.30271   4.30961
 Alpha virt. eigenvalues --    4.31762   4.32227   4.32793   4.32991   4.33414
 Alpha virt. eigenvalues --    4.33960   4.34217   4.35172   4.35425   4.36068
 Alpha virt. eigenvalues --    4.36577   4.37216   4.38966   4.39723   4.39969
 Alpha virt. eigenvalues --    4.40825   4.40921   4.41794   4.42312   4.42820
 Alpha virt. eigenvalues --    4.43323   4.43512   4.44026   4.44972   4.46158
 Alpha virt. eigenvalues --    4.46943   4.47112   4.47185   4.47746   4.48253
 Alpha virt. eigenvalues --    4.48983   4.50379   4.50888   4.51735   4.52180
 Alpha virt. eigenvalues --    4.52311   4.52988   4.53689   4.54313   4.55169
 Alpha virt. eigenvalues --    4.55803   4.56844   4.57212   4.57980   4.59024
 Alpha virt. eigenvalues --    4.59284   4.59988   4.60808   4.61242   4.61753
 Alpha virt. eigenvalues --    4.62488   4.63733   4.64842   4.65065   4.65695
 Alpha virt. eigenvalues --    4.66648   4.67142   4.67652   4.68079   4.68647
 Alpha virt. eigenvalues --    4.69530   4.70097   4.70947   4.71570   4.72192
 Alpha virt. eigenvalues --    4.72974   4.73499   4.73826   4.74270   4.74876
 Alpha virt. eigenvalues --    4.75097   4.76269   4.76446   4.77249   4.77784
 Alpha virt. eigenvalues --    4.78212   4.78616   4.78980   4.79163   4.79898
 Alpha virt. eigenvalues --    4.79931   4.80185   4.82212   4.82349   4.82898
 Alpha virt. eigenvalues --    4.83181   4.83854   4.84435   4.85026   4.85459
 Alpha virt. eigenvalues --    4.85783   4.85902   4.86045   4.86816   4.87321
 Alpha virt. eigenvalues --    4.87935   4.88060   4.88659   4.88880   4.89230
 Alpha virt. eigenvalues --    4.89833   4.90863   4.91757   4.91843   4.92124
 Alpha virt. eigenvalues --    4.92543   4.93493   4.94460   4.94935   4.95512
 Alpha virt. eigenvalues --    4.96437   4.97033   4.97179   4.97761   4.97927
 Alpha virt. eigenvalues --    4.98449   4.98939   4.99099   4.99727   4.99849
 Alpha virt. eigenvalues --    5.00582   5.01304   5.02135   5.03221   5.03680
 Alpha virt. eigenvalues --    5.03897   5.04621   5.05016   5.05261   5.07459
 Alpha virt. eigenvalues --    5.07899   5.08521   5.08910   5.09701   5.10500
 Alpha virt. eigenvalues --    5.11921   5.12357   5.14421   5.15176   5.16489
 Alpha virt. eigenvalues --    5.17021   5.17876   5.18737   5.20316   5.21723
 Alpha virt. eigenvalues --    5.22111   5.22771   5.23206   5.23538   5.23644
 Alpha virt. eigenvalues --    5.24325   5.24810   5.24981   5.25215   5.25879
 Alpha virt. eigenvalues --    5.27196   5.28032   5.29425   5.29875   5.30641
 Alpha virt. eigenvalues --    5.31251   5.31900   5.32132   5.32317   5.33487
 Alpha virt. eigenvalues --    5.34802   5.36215   5.37017   5.38808   5.39686
 Alpha virt. eigenvalues --    5.41456   5.42204   5.43019   5.43821   5.44049
 Alpha virt. eigenvalues --    5.44963   5.45564   5.47611   5.48171   5.50123
 Alpha virt. eigenvalues --    5.51194   5.51613   5.53754   5.54242   5.54896
 Alpha virt. eigenvalues --    5.55956   5.57001   5.58234   5.61476   5.61736
 Alpha virt. eigenvalues --    5.63141   5.64003   5.64096   5.65431   5.66859
 Alpha virt. eigenvalues --    5.67048   5.68161   5.68581   5.69952   5.70086
 Alpha virt. eigenvalues --    5.71537   5.72278   5.73553   5.76224   5.77924
 Alpha virt. eigenvalues --    5.79946   5.82125   5.83410   5.85806   5.86446
 Alpha virt. eigenvalues --    5.88235   5.90696   5.96781   5.97834   5.99504
 Alpha virt. eigenvalues --    6.00932   6.01208   6.01254   6.02499   6.04132
 Alpha virt. eigenvalues --    6.05490   6.06377   6.06939   6.10261   6.11149
 Alpha virt. eigenvalues --    6.13771   6.15327   6.17589   6.18002   6.19477
 Alpha virt. eigenvalues --    6.23817   6.25787   6.26641   6.28079   6.30453
 Alpha virt. eigenvalues --    6.33974   6.36525   6.36693   6.39591   6.41097
 Alpha virt. eigenvalues --    6.43603   6.45597   6.46406   6.49525   6.51290
 Alpha virt. eigenvalues --    6.54579   6.55140   6.66808   6.70338   6.74580
 Alpha virt. eigenvalues --    6.77074   6.83157   6.88043   6.90106   6.94402
 Alpha virt. eigenvalues --    7.00036   7.02829   7.10393   7.14586   7.15183
 Alpha virt. eigenvalues --    7.18228   7.33387   7.38349   9.29385   9.50739
 Alpha virt. eigenvalues --    9.65296  20.23392  22.52860  22.53936  22.56967
 Alpha virt. eigenvalues --   22.58843  22.83170  22.88117  22.90466  22.92769
 Alpha virt. eigenvalues --   22.93940  22.95554  22.95919  22.96650  22.97202
 Alpha virt. eigenvalues --   22.99422  23.00735  23.06056  23.06660  23.09954
 Alpha virt. eigenvalues --   23.10913  23.13294  23.15322  23.19697  23.27049
 Alpha virt. eigenvalues --   23.28385  23.33854  23.37573  23.39201  23.42567
 Alpha virt. eigenvalues --   23.46604  23.47409  23.48822  23.50593  23.57490
 Alpha virt. eigenvalues --   23.59565  23.62066  23.65102  23.72660  23.78278
 Alpha virt. eigenvalues --   23.87930  23.88275  23.98912  32.67367  32.83668
 Alpha virt. eigenvalues --   32.98951  33.08826  33.13621  33.18307  43.93626
 Alpha virt. eigenvalues --   43.94277  43.96283  43.99368
  Beta  occ. eigenvalues -- -256.39746 -89.03720 -30.16022 -25.99079 -25.99029
  Beta  occ. eigenvalues --  -25.98045 -19.26858 -19.25699 -19.16563 -19.15596
  Beta  occ. eigenvalues --  -14.44399 -14.40760 -14.36832 -14.36785 -14.36730
  Beta  occ. eigenvalues --  -14.36702 -10.34881 -10.33436 -10.27824 -10.26976
  Beta  occ. eigenvalues --  -10.23893 -10.23881 -10.23867 -10.23733 -10.23708
  Beta  occ. eigenvalues --  -10.23590 -10.23558 -10.23495 -10.23246 -10.23012
  Beta  occ. eigenvalues --  -10.22750 -10.22058 -10.21867 -10.21182 -10.20911
  Beta  occ. eigenvalues --  -10.20717 -10.20613 -10.20575 -10.20441 -10.20294
  Beta  occ. eigenvalues --  -10.20255 -10.20210 -10.20099 -10.19956 -10.19744
  Beta  occ. eigenvalues --  -10.19705 -10.19632 -10.19106 -10.18906 -10.18191
  Beta  occ. eigenvalues --  -10.18100 -10.17977 -10.17846 -10.17715 -10.17563
  Beta  occ. eigenvalues --  -10.17075 -10.16544  -8.01573  -5.95190  -5.94920
  Beta  occ. eigenvalues --   -5.94470  -3.48270  -2.23624  -2.23227  -2.23155
  Beta  occ. eigenvalues --   -1.16658  -1.16327  -1.09183  -1.00694  -1.00495
  Beta  occ. eigenvalues --   -0.98060  -0.97201  -0.96787  -0.95989  -0.93936
  Beta  occ. eigenvalues --   -0.86063  -0.84637  -0.84255  -0.83644  -0.82717
  Beta  occ. eigenvalues --   -0.82024  -0.81780  -0.80942  -0.80456  -0.79696
  Beta  occ. eigenvalues --   -0.79061  -0.79009  -0.77452  -0.77010  -0.74898
  Beta  occ. eigenvalues --   -0.74804  -0.74181  -0.73773  -0.72688  -0.72096
  Beta  occ. eigenvalues --   -0.70155  -0.69952  -0.69444  -0.69000  -0.68666
  Beta  occ. eigenvalues --   -0.67063  -0.66699  -0.65866  -0.65207  -0.64951
  Beta  occ. eigenvalues --   -0.62876  -0.62607  -0.62250  -0.59734  -0.58383
  Beta  occ. eigenvalues --   -0.58324  -0.56006  -0.55439  -0.55129  -0.54299
  Beta  occ. eigenvalues --   -0.53041  -0.52753  -0.52199  -0.51507  -0.51244
  Beta  occ. eigenvalues --   -0.50874  -0.50743  -0.50557  -0.50319  -0.49845
  Beta  occ. eigenvalues --   -0.49710  -0.49206  -0.48925  -0.48327  -0.48007
  Beta  occ. eigenvalues --   -0.47869  -0.47802  -0.47153  -0.46772  -0.46360
  Beta  occ. eigenvalues --   -0.46109  -0.46025  -0.45578  -0.45430  -0.45171
  Beta  occ. eigenvalues --   -0.45025  -0.44856  -0.44764  -0.44669  -0.44472
  Beta  occ. eigenvalues --   -0.44027  -0.43743  -0.43492  -0.43381  -0.43317
  Beta  occ. eigenvalues --   -0.42674  -0.42372  -0.42175  -0.41620  -0.40636
  Beta  occ. eigenvalues --   -0.40492  -0.40373  -0.40209  -0.39847  -0.39737
  Beta  occ. eigenvalues --   -0.39545  -0.39418  -0.39081  -0.38856  -0.38705
  Beta  occ. eigenvalues --   -0.38614  -0.38212  -0.37999  -0.37734  -0.37232
  Beta  occ. eigenvalues --   -0.37210  -0.36894  -0.36499  -0.36288  -0.35419
  Beta  occ. eigenvalues --   -0.34968  -0.34853  -0.34362  -0.34200  -0.33751
  Beta  occ. eigenvalues --   -0.33417  -0.32931  -0.31228  -0.31120  -0.30885
  Beta  occ. eigenvalues --   -0.30462  -0.30163  -0.29165  -0.28074  -0.27267
  Beta  occ. eigenvalues --   -0.27173  -0.26649  -0.26321  -0.25942  -0.25761
  Beta  occ. eigenvalues --   -0.25300  -0.25204  -0.23234  -0.22840  -0.21671
  Beta  occ. eigenvalues --   -0.21514  -0.17769
  Beta virt. eigenvalues --   -0.13005  -0.06532  -0.04668  -0.04630  -0.02670
  Beta virt. eigenvalues --   -0.00913  -0.00614   0.00078   0.01204   0.01325
  Beta virt. eigenvalues --    0.02353   0.02479   0.02847   0.03344   0.03665
  Beta virt. eigenvalues --    0.04224   0.04384   0.04744   0.05644   0.05998
  Beta virt. eigenvalues --    0.06646   0.06729   0.06964   0.07164   0.07445
  Beta virt. eigenvalues --    0.08203   0.08339   0.08624   0.08918   0.09238
  Beta virt. eigenvalues --    0.09379   0.09644   0.10034   0.10283   0.10604
  Beta virt. eigenvalues --    0.10768   0.10789   0.11474   0.11715   0.11890
  Beta virt. eigenvalues --    0.12185   0.12364   0.12608   0.12812   0.13032
  Beta virt. eigenvalues --    0.13162   0.13345   0.13571   0.13818   0.14057
  Beta virt. eigenvalues --    0.14285   0.14396   0.14450   0.14935   0.15019
  Beta virt. eigenvalues --    0.15122   0.15397   0.15564   0.15707   0.15847
  Beta virt. eigenvalues --    0.16141   0.16210   0.16312   0.16522   0.16641
  Beta virt. eigenvalues --    0.16769   0.17278   0.17408   0.17474   0.17559
  Beta virt. eigenvalues --    0.17636   0.18007   0.18223   0.18465   0.18595
  Beta virt. eigenvalues --    0.18797   0.19148   0.19633   0.19884   0.20084
  Beta virt. eigenvalues --    0.20207   0.20379   0.20651   0.20746   0.20895
  Beta virt. eigenvalues --    0.21035   0.21043   0.21318   0.21678   0.21947
  Beta virt. eigenvalues --    0.22140   0.22220   0.22522   0.22884   0.23138
  Beta virt. eigenvalues --    0.23273   0.23438   0.23524   0.23839   0.24025
  Beta virt. eigenvalues --    0.24096   0.24252   0.24514   0.24719   0.24966
  Beta virt. eigenvalues --    0.25232   0.25464   0.25530   0.25772   0.25856
  Beta virt. eigenvalues --    0.26077   0.26323   0.26831   0.26886   0.27090
  Beta virt. eigenvalues --    0.27398   0.27597   0.28115   0.28258   0.28501
  Beta virt. eigenvalues --    0.28642   0.29005   0.29125   0.29508   0.29612
  Beta virt. eigenvalues --    0.29758   0.30306   0.30437   0.30567   0.30832
  Beta virt. eigenvalues --    0.30933   0.31100   0.31370   0.31569   0.31583
  Beta virt. eigenvalues --    0.31934   0.32035   0.32274   0.32430   0.32616
  Beta virt. eigenvalues --    0.32703   0.33202   0.33350   0.34131   0.34197
  Beta virt. eigenvalues --    0.34416   0.34478   0.34786   0.34902   0.35024
  Beta virt. eigenvalues --    0.35334   0.35471   0.35641   0.35958   0.36277
  Beta virt. eigenvalues --    0.36546   0.36605   0.36859   0.37275   0.37430
  Beta virt. eigenvalues --    0.37569   0.37679   0.38047   0.38168   0.38544
  Beta virt. eigenvalues --    0.38693   0.38846   0.38884   0.39321   0.39369
  Beta virt. eigenvalues --    0.39694   0.39750   0.40117   0.40548   0.40617
  Beta virt. eigenvalues --    0.40833   0.41007   0.41281   0.41353   0.41510
  Beta virt. eigenvalues --    0.41781   0.41891   0.42293   0.42504   0.42671
  Beta virt. eigenvalues --    0.42949   0.43154   0.43398   0.43519   0.43837
  Beta virt. eigenvalues --    0.43959   0.44081   0.44261   0.44438   0.44749
  Beta virt. eigenvalues --    0.44807   0.45083   0.45298   0.45422   0.45591
  Beta virt. eigenvalues --    0.45880   0.45984   0.46072   0.46353   0.46628
  Beta virt. eigenvalues --    0.46688   0.46938   0.47080   0.47395   0.47553
  Beta virt. eigenvalues --    0.47896   0.48067   0.48217   0.48361   0.48463
  Beta virt. eigenvalues --    0.48711   0.48809   0.48995   0.49119   0.49289
  Beta virt. eigenvalues --    0.49338   0.49516   0.49693   0.49796   0.49907
  Beta virt. eigenvalues --    0.50151   0.50458   0.50621   0.50735   0.50799
  Beta virt. eigenvalues --    0.51147   0.51206   0.51472   0.51625   0.51825
  Beta virt. eigenvalues --    0.51858   0.52076   0.52232   0.52479   0.52665
  Beta virt. eigenvalues --    0.52824   0.52886   0.53087   0.53318   0.53371
  Beta virt. eigenvalues --    0.53486   0.53661   0.53829   0.54131   0.54298
  Beta virt. eigenvalues --    0.54334   0.54545   0.54665   0.55055   0.55063
  Beta virt. eigenvalues --    0.55360   0.55416   0.55509   0.55937   0.55976
  Beta virt. eigenvalues --    0.56018   0.56309   0.56527   0.56713   0.56934
  Beta virt. eigenvalues --    0.57167   0.57627   0.57824   0.57976   0.58137
  Beta virt. eigenvalues --    0.58223   0.58466   0.58759   0.58956   0.59464
  Beta virt. eigenvalues --    0.59547   0.59759   0.59902   0.60002   0.60447
  Beta virt. eigenvalues --    0.60769   0.60954   0.61226   0.61574   0.61857
  Beta virt. eigenvalues --    0.62044   0.62348   0.62498   0.62844   0.63083
  Beta virt. eigenvalues --    0.63257   0.63666   0.64042   0.64304   0.64485
  Beta virt. eigenvalues --    0.64681   0.64751   0.64945   0.65200   0.65210
  Beta virt. eigenvalues --    0.65689   0.65900   0.66190   0.66423   0.66608
  Beta virt. eigenvalues --    0.66732   0.66829   0.67213   0.67425   0.67813
  Beta virt. eigenvalues --    0.68012   0.68360   0.68708   0.68996   0.69108
  Beta virt. eigenvalues --    0.69544   0.69703   0.70175   0.70632   0.70893
  Beta virt. eigenvalues --    0.71021   0.71292   0.71789   0.71832   0.72119
  Beta virt. eigenvalues --    0.72154   0.72420   0.72906   0.73124   0.73410
  Beta virt. eigenvalues --    0.73594   0.73728   0.74148   0.74464   0.74526
  Beta virt. eigenvalues --    0.75022   0.75070   0.75409   0.75464   0.75920
  Beta virt. eigenvalues --    0.76148   0.76345   0.76925   0.76989   0.77289
  Beta virt. eigenvalues --    0.77526   0.77728   0.78093   0.78233   0.78520
  Beta virt. eigenvalues --    0.78734   0.78970   0.79074   0.79326   0.79483
  Beta virt. eigenvalues --    0.79752   0.79766   0.80211   0.80387   0.80958
  Beta virt. eigenvalues --    0.81297   0.81582   0.82138   0.82315   0.82775
  Beta virt. eigenvalues --    0.83085   0.83333   0.83378   0.83669   0.83999
  Beta virt. eigenvalues --    0.84246   0.84560   0.84853   0.85380   0.85457
  Beta virt. eigenvalues --    0.85675   0.85927   0.85959   0.86300   0.86897
  Beta virt. eigenvalues --    0.87086   0.87522   0.87592   0.87923   0.88347
  Beta virt. eigenvalues --    0.88494   0.88720   0.89066   0.89409   0.89591
  Beta virt. eigenvalues --    0.89850   0.90152   0.90464   0.90886   0.90920
  Beta virt. eigenvalues --    0.91149   0.91700   0.91963   0.92480   0.92512
  Beta virt. eigenvalues --    0.92835   0.93151   0.93244   0.93574   0.93928
  Beta virt. eigenvalues --    0.94090   0.94384   0.94604   0.94905   0.95101
  Beta virt. eigenvalues --    0.95283   0.95493   0.95749   0.95968   0.96132
  Beta virt. eigenvalues --    0.96523   0.97095   0.97248   0.97743   0.97876
  Beta virt. eigenvalues --    0.98119   0.98258   0.98759   0.98922   0.99436
  Beta virt. eigenvalues --    0.99652   0.99918   1.00193   1.00371   1.00539
[...]
  1685. RY*(   3) H  73                  0.00007     2.95581   
  1686. RY*(   4) H  73                  0.00006     2.56145   
  1687. RY*(   5) H  73                  0.00001     3.27391   
  1688. RY*(   1) H  74                  0.00029     1.59143   
  1689. RY*(   2) H  74                  0.00008     1.33751   
  1690. RY*(   3) H  74                  0.00004     2.45273   
  1691. RY*(   4) H  74                  0.00004     2.48207   
  1692. RY*(   5) H  74                  0.00001     3.24028   
  1693. RY*(   1) H  75                  0.00033     1.70583   
  1694. RY*(   2) H  75                  0.00008     1.91007   
  1695. RY*(   3) H  75                  0.00005     2.53236   
  1696. RY*(   4) H  75                  0.00003     2.36751   
  1697. RY*(   5) H  75                  0.00001     3.27130   
  1698. RY*(   1) H  76                  0.00034     1.39356   
  1699. RY*(   2) H  76                  0.00009     1.62281   
  1700. RY*(   3) H  76                  0.00003     2.07431   
  1701. RY*(   4) H  76                  0.00004     2.22431   
  1702. RY*(   5) H  76                  0.00000     3.23645   
  1703. RY*(   1) H  77                  0.00038     1.24894   
  1704. RY*(   2) H  77                  0.00011     1.64939   
  1705. RY*(   3) H  77                  0.00004     2.22905   
  1706. RY*(   4) H  77                  0.00003     2.23519   
  1707. RY*(   5) H  77                  0.00000     3.22900   
  1708. RY*(   1) H  78                  0.00038     1.24306   
  1709. RY*(   2) H  78                  0.00011     1.63286   
  1710. RY*(   3) H  78                  0.00004     2.30697   
  1711. RY*(   4) H  78                  0.00002     2.20696   
  1712. RY*(   5) H  78                  0.00000     3.20710   
  1713. RY*(   1) H  79                  0.00029     1.70740   
  1714. RY*(   2) H  79                  0.00012     0.87787   
  1715. RY*(   3) H  79                  0.00006     2.13775   
  1716. RY*(   4) H  79                  0.00006     2.49675   
  1717. RY*(   5) H  79                  0.00001     3.29248   
  1718. RY*(   1) H  80                  0.00031     1.54391   
  1719. RY*(   2) H  80                  0.00008     1.18414   
  1720. RY*(   3) H  80                  0.00006     2.01150   
  1721. RY*(   4) H  80                  0.00000     2.93382   
  1722. RY*(   5) H  80                  0.00001     2.27780   
  1723. RY*(   1) H  81                  0.00032     1.56351   
  1724. RY*(   2) H  81                  0.00008     1.49796   
  1725. RY*(   3) H  81                  0.00004     2.11505   
  1726. RY*(   4) H  81                  0.00001     2.62269   
  1727. RY*(   5) H  81                  0.00001     2.28045   
  1728. RY*(   1) H  82                  0.00041     1.23302   
  1729. RY*(   2) H  82                  0.00011     1.65065   
  1730. RY*(   3) H  82                  0.00004     2.31184   
  1731. RY*(   4) H  82                  0.00001     2.54340   
  1732. RY*(   5) H  82                  0.00001     2.87191   
  1733. RY*(   1) H  83                  0.00038     1.39643   
  1734. RY*(   2) H  83                  0.00009     1.67897   
  1735. RY*(   3) H  83                  0.00004     2.22794   
  1736. RY*(   4) H  83                  0.00003     2.04467   
  1737. RY*(   5) H  83                  0.00000     3.27456   
  1738. RY*(   1) H  84                  0.00036     1.25816   
  1739. RY*(   2) H  84                  0.00011     1.65421   
  1740. RY*(   3) H  84                  0.00004     2.29839   
  1741. RY*(   4) H  84                  0.00002     2.18220   
  1742. RY*(   5) H  84                  0.00000     3.23449   
  1743. RY*(   1) H  85                  0.00033     1.63865   
  1744. RY*(   2) H  85                  0.00013     1.05663   
  1745. RY*(   3) H  85                  0.00005     2.11799   
  1746. RY*(   4) H  85                  0.00006     2.56457   
  1747. RY*(   5) H  85                  0.00001     3.29210   
  1748. RY*(   1) H  86                  0.00030     1.56112   
  1749. RY*(   2) H  86                  0.00008     1.21617   
  1750. RY*(   3) H  86                  0.00006     1.95962   
  1751. RY*(   4) H  86                  0.00001     3.19965   
  1752. RY*(   5) H  86                  0.00001     2.05719   
  1753. RY*(   1) H  87                  0.00035     1.52122   
  1754. RY*(   2) H  87                  0.00009     1.45291   
  1755. RY*(   3) H  87                  0.00004     2.13918   
  1756. RY*(   4) H  87                  0.00001     1.94739   
  1757. RY*(   5) H  87                  0.00001     3.03541   
  1758. RY*(   1) H  88                  0.00026     1.47981   
  1759. RY*(   2) H  88                  0.00010     1.76425   
  1760. RY*(   3) H  88                  0.00004     2.27073   
  1761. RY*(   4) H  88                  0.00001     2.01487   
  1762. RY*(   5) H  88                  0.00000     3.08276   
  1763. RY*(   1) H  89                  0.00033     1.26172   
  1764. RY*(   2) H  89                  0.00010     1.77283   
  1765. RY*(   3) H  89                  0.00004     2.33432   
  1766. RY*(   4) H  89                  0.00002     2.07724   
  1767. RY*(   5) H  89                  0.00000     3.13781   
  1768. RY*(   1) H  90                  0.00039     1.25921   
  1769. RY*(   2) H  90                  0.00010     1.59092   
  1770. RY*(   3) H  90                  0.00004     2.28385   
  1771. RY*(   4) H  90                  0.00002     2.24326   
  1772. RY*(   5) H  90                  0.00000     3.13425   
  1773. RY*(   1) H  91                  0.00070     0.60349   
  1774. RY*(   2) H  91                  0.00010     2.36614   
  1775. RY*(   3) H  91                  0.00007     2.75081   
  1776. RY*(   4) H  91                  0.00006     2.66339   
  1777. RY*(   5) H  91                  0.00001     3.21389   
  1778. RY*(   1) H  92                  0.00069     0.57485   
  1779. RY*(   2) H  92                  0.00012     2.39601   
  1780. RY*(   3) H  92                  0.00007     2.78867   
  1781. RY*(   4) H  92                  0.00006     2.62199   
  1782. RY*(   5) H  92                  0.00000     3.21480   
  1783. RY*(   1) H  93                  0.00033     1.56664   
  1784. RY*(   2) H  93                  0.00008     1.63051   
  1785. RY*(   3) H  93                  0.00005     2.55826   
  1786. RY*(   4) H  93                  0.00004     2.49646   
  1787. RY*(   5) H  93                  0.00001     3.28263   
  1788. RY*(   1) H  94                  0.00028     1.61903   
  1789. RY*(   2) H  94                  0.00008     1.52513   
  1790. RY*(   3) H  94                  0.00005     2.37893   
  1791. RY*(   4) H  94                  0.00003     2.50413   
  1792. RY*(   5) H  94                  0.00001     3.18096   
  1793. RY*(   1) H  95                  0.00078     0.78331   
  1794. RY*(   2) H  95                  0.00016     2.24996   
  1795. RY*(   3) H  95                  0.00013     2.42484   
  1796. RY*(   4) H  95                  0.00006     3.32996   
  1797. RY*(   5) H  95                  0.00000     3.45986   
  1803. RY*(   1) H  97                  0.00028     0.94743   
  1804. RY*(   2) H  97                  0.00007     1.75795   
  1805. RY*(   3) H  97                  0.00004     2.13180   
  1806. RY*(   4) H  97                  0.00005     2.15286   
  1807. RY*(   5) H  97                  0.00000     2.88939   
  1808. RY*(   1) H  98                  0.00101     0.88308   
  1809. RY*(   2) H  98                  0.00031     2.14062   
  1810. RY*(   3) H  98                  0.00024     1.81764   
  1811. RY*(   4) H  98                  0.00011     2.15473   
  1812. RY*(   5) H  98                  0.00000     3.18762   
  1813. RY*(   1) H  99                  0.00097     0.90301   
  1814. RY*(   2) H  99                  0.00030     2.12648   
  1815. RY*(   3) H  99                  0.00026     1.85568   
  1816. RY*(   4) H  99                  0.00011     2.14320   
  1817. RY*(   5) H  99                  0.00000     3.13349   
  1832. BD*(   1) C  12 - C  13          0.00414     0.36026   
  1833. BD*(   1) C  12 - H  16          0.00391     0.44035   
  1834. BD*(   1) C  12 - H  17          0.00345     0.41519   
  1835. BD*(   1) C  12 - H  97          0.00331     0.41565   
  1836. BD*(   1) C  13 - S  14          0.01693     0.16164   
  1837. BD*(   1) C  13 - H  18          0.00646     0.55417   
  1838. BD*(   1) C  13 - H  19          0.00871     0.57250   
  1839. BD*(   1) S  14 - C  15          0.00797     0.20145   
  1840. BD*(   1) S  14 -Fe  65          0.05126     0.26412   
  1841. BD*(   1) C  15 - H  20          0.00454     0.55804   
  1842. BD*(   1) C  15 - H  21          0.00593     0.54344   
  1843. BD*(   1) C  15 - H  22          0.00724     0.55390   
  1844. BD*(   1) C  23 - C  27          0.01077     0.62163   
  1845. BD*(   1) C  23 - C  54          0.01180     0.63244   
  1846. BD*(   2) C  23 - C  54          0.11050     0.08437  1920(v),1862(v),1918(v)
                                                    1857(r),529(g)
  1847. BD*(   1) C  23 - H  95          0.00662     0.61235   
  1848. BD*(   1) C  24 - C  30          0.01038     0.59279   
  1849. BD*(   2) C  24 - C  30          0.10877     0.07769  1884(v),1864(v),1862(v)
                                                    555(g)
  1850. BD*(   1) C  24 - C  37          0.01101     0.60845   
  1851. BD*(   1) C  24 - H  66          0.00601     0.61950   
  1852. BD*(   1) C  25 - C  40          0.01082     0.62283   
  1853. BD*(   2) C  25 - C  40          0.10875     0.08185  1886(v),1901(v),1884(v)
                                                    581(g)
  1854. BD*(   1) C  25 - C  44          0.01061     0.59573   
  1855. BD*(   1) C  25 - H  67          0.00592     0.62016   
  1856. BD*(   1) C  26 - C  47          0.01068     0.61505   
  1857. BD*(   2) C  26 - C  47          0.10576     0.08455  1903(v),1918(v),1901(v)
                                                    1846(r),607(g)
  1858. BD*(   1) C  26 - C  51          0.01140     0.61053   
  1859. BD*(   1) C  26 - H  68          0.00603     0.61995   
  1860. BD*(   1) C  27 - C  28          0.01692     0.49820   
  1861. BD*(   1) C  27 - N  61          0.01354     0.52837   
  1862. BD*(   2) C  27 - N  61          0.19568     0.04079  1846(v),1864(v),1849(v)
                                                    635(g),1918(r),1517(g)
                                                    529(v),1884(r),1828(r)
  1863. BD*(   1) C  28 - C  29          0.00893     0.68392   
  1864. BD*(   2) C  28 - C  29          0.06443     0.10097   
  1865. BD*(   1) C  28 - C  32          0.01347     0.40965   
  1866. BD*(   1) C  29 - C  30          0.01692     0.49391   
  1867. BD*(   1) C  29 - C  31          0.00993     0.42060   
  1868. BD*(   1) C  30 - N  61          0.01330     0.50988   
  1869. BD*(   1) C  31 - H  69          0.00412     0.55314   
  1870. BD*(   1) C  31 - H  70          0.00308     0.56085   
  1871. BD*(   1) C  31 - H  71          0.00406     0.55244   
  1872. BD*(   1) C  32 - C  33          0.00940     0.40317   
  1873. BD*(   1) C  32 - H  72          0.00672     0.57016   
  1874. BD*(   1) C  32 - H  73          0.00533     0.57583   
  1875. BD*(   1) C  33 - C  34          0.03027     0.35036   
  1876. BD*(   1) C  33 - H  74          0.00534     0.55706   
  1877. BD*(   1) C  33 - H  75          0.00527     0.56797   
  1878. BD*(   1) C  34 - O  35          0.03619     0.47117   
  1879. BD*(   1) C  34 - O  36          0.03241     0.45762   
  1880. BD*(   2) C  34 - O  36          0.10074     0.06934  1879(g),1876(v),824(g)
                                                    1881(v)
  1881. BD*(   1) O  35 - H  99          0.00708     0.38663   
  1882. BD*(   1) C  37 - C  38          0.01648     0.51011   
  1883. BD*(   1) C  37 - N  62          0.01355     0.52350   
  1884. BD*(   2) C  37 - N  62          0.20919     0.03612  1849(v),1886(v),1853(v)
                                                    895(g),555(v),1543(g)
                                                    1862(r),1901(r)
  1885. BD*(   1) C  38 - C  39          0.00996     0.63964   
  1886. BD*(   2) C  38 - C  39          0.07288     0.09345   
  1887. BD*(   1) C  38 - C  41          0.00933     0.40083   
  1888. BD*(   1) C  39 - C  40          0.01694     0.53015   
  1889. BD*(   1) C  39 - C  42          0.01362     0.38281   
  1890. BD*(   1) C  40 - N  62          0.01450     0.50496   
  1891. BD*(   1) C  41 - H  76          0.00329     0.58729   
  1892. BD*(   1) C  41 - H  77          0.00424     0.57563   
  1893. BD*(   1) C  41 - H  78          0.00463     0.57505   
  1894. BD*(   1) C  42 - C  43          0.00286     0.49633   
  1895. BD*(   2) C  42 - C  43          0.01377     0.06726   
  1896. BD*(   1) C  42 - H  79          0.00552     0.66435   
  1897. BD*(   1) C  43 - H  80          0.00343     0.62217   
  1898. BD*(   1) C  43 - H  81          0.00297     0.62025   
  1899. BD*(   1) C  44 - C  45          0.01616     0.50908   
  1900. BD*(   1) C  44 - N  63          0.01297     0.53102   
  1901. BD*(   2) C  44 - N  63          0.19668     0.04030  1853(v),1903(v),1857(v)
                                                    1077(g),1918(r),581(v)
                                                    1569(g),1884(r),1828(r)
  1902. BD*(   1) C  45 - C  46          0.00987     0.65926   
  1903. BD*(   2) C  45 - C  46          0.07225     0.10031   
  1904. BD*(   1) C  45 - C  48          0.00993     0.41649   
  1905. BD*(   1) C  46 - C  47          0.01798     0.50348   
  1906. BD*(   1) C  46 - C  49          0.01313     0.41856   
  1907. BD*(   1) C  47 - N  63          0.01359     0.53210   
  1908. BD*(   1) C  48 - H  82          0.00477     0.57868   
  1909. BD*(   1) C  48 - H  83          0.00356     0.58921   
  1910. BD*(   1) C  48 - H  84          0.00431     0.57540   
  1911. BD*(   1) C  49 - C  50          0.00349     0.55043   
  1912. BD*(   2) C  49 - C  50          0.01918     0.06430   
  1913. BD*(   1) C  49 - H  85          0.00588     0.66465   
  1914. BD*(   1) C  50 - H  86          0.00338     0.62737   
  1915. BD*(   1) C  50 - H  87          0.00341     0.62423   
  1916. BD*(   1) C  51 - C  52          0.01678     0.51777   
  1917. BD*(   1) C  51 - N  64          0.01397     0.53379   
  1918. BD*(   2) C  51 - N  64          0.20385     0.03829  1857(v),1920(v),1846(v)
                                                    1259(g),1901(r),1862(r)
                                                    1260(g),1595(g),607(v)
  1919. BD*(   1) C  52 - C  53          0.00887     0.66848   
  1920. BD*(   2) C  52 - C  53          0.06746     0.09817   
  1921. BD*(   1) C  52 - C  55          0.00995     0.39444   
  1922. BD*(   1) C  53 - C  54          0.01613     0.53737   
  1923. BD*(   1) C  53 - C  56          0.01305     0.39198   
  1924. BD*(   1) C  54 - N  64          0.01440     0.52668   
  1925. BD*(   1) C  55 - H  88          0.00282     0.55774   
  1926. BD*(   1) C  55 - H  89          0.00358     0.55971   
  1927. BD*(   1) C  55 - H  90          0.00453     0.55389   
  1928. BD*(   1) C  56 - C  57          0.00902     0.36423   
  1929. BD*(   1) C  56 - H  91          0.00492     0.58152   
  1930. BD*(   1) C  56 - H  92          0.00558     0.57534   
  1931. BD*(   1) C  57 - C  58          0.03061     0.39180   
  1932. BD*(   1) C  57 - H  93          0.00434     0.57436   
  1933. BD*(   1) C  57 - H  94          0.00544     0.55283   
  1934. BD*(   1) C  58 - O  59          0.01648     0.57001   
  1935. BD*(   2) C  58 - O  59          0.11764     0.03024  1934(g),1933(v),1441(g)
                                                    1928(v)
  1936. BD*(   1) C  58 - O  60          0.03579     0.52019   
  1937. BD*(   1) O  60 - H  98          0.00727     0.39200   
  1938. BD*(   1) N  62 -Fe  65          0.08432     0.23660   
  1939. BD*(   1) N  63 -Fe  65          0.08771     0.22448   
       -------------------------------
              Total Lewis  176.46211  ( 97.9443%)
        Valence non-Lewis    3.37995  (  1.8760%)
        Rydberg non-Lewis    0.32375  (  0.1797%)
       -------------------------------
            Total unit  2  180.16582  (100.0000%)
           Charge unit  2    1.83418
 1\1\GINC-NODE640\SP\UPBE1PBE\def2TZVP\C41H46Fe1N6O4S1(5)\ZHARTOVSKA\12
 -Sep-2022\0\\# PBE1PBE/def2TZVP empiricaldispersion=GD3BJ scf=maxcycle
 =999 geom=check pop=nbo\\6u97_II_Q\\0,5\C,0,12.517,7.03,2.288\C,0,13.4
 ,6.958,3.489\N,0,14.613,7.595,3.594\C,0,13.26,6.242,4.606\C,0,15.164,7
 .288,4.744\N,0,14.389,6.463,5.382\H,0,11.71441422,6.33017963,2.3929166
 6\H,0,13.08509326,6.79261905,1.41288839\H,0,14.957,8.112,2.999\H,0,12.
 54,5.696,4.824\H,0,15.98,7.611,5.054\C,0,15.346,6.424,11.225\C,0,14.52
 9,5.302,10.609\S,0,15.366,4.544,9.183\C,0,14.694,2.926,9.252\H,0,15.73
 147172,7.05198011,10.449144\H,0,16.15819869,6.00838336,11.7840135\H,0,
 14.382,4.612,11.275\H,0,13.678,5.657,10.306\H,0,15.047,2.406,8.513\H,0
 ,14.945,2.516,10.094\H,0,13.728,2.982,9.186\C,0,18.1,6.369,6.981\C,0,1
 5.37,2.706,5.458\C,0,11.541,4.669,7.591\C,0,14.202,8.564,8.629\C,0,17.
 722,5.234,6.322\C,0,18.555,4.319,5.554\C,0,17.823999,3.283,5.196\C,0,1
 6.473,3.509,5.704\C,0,18.245001,2.091,4.382\C,0,20.017,4.595,5.237\C,0
 ,20.931999,4.521,6.421\C,0,22.370001,4.913,6.118\O,0,22.768,5.104,4.93
 4\O,0,23.128,5.072,7.127\C,0,14.099,2.916,5.94\C,0,13.005,1.999,5.718\
 C,0,11.949,2.531,6.355\C,0,12.339,3.781,6.927\C,0,13.114,0.679,4.967\C
 ,0,10.543,1.907,6.561\C,0,10.522,0.668,7.213\C,0,11.888,5.929,8.052\C,
 0,11.028,6.952,8.606\C,0,11.774,8.029,8.848\C,0,13.139,7.718,8.455\C,0
 ,9.543,6.752,8.806\C,0,11.308,9.397,9.33\C,0,10.556,9.519,10.478\C,0,1
 5.518,8.288,8.344\C,0,16.648001,9.08,8.754\C,0,17.729,8.448,8.317\C,0,
 17.313,7.272,7.626\C,0,16.607,10.392,9.536\C,0,19.181999,8.904,8.521\C
 ,0,19.809999,8.162,9.708\C,0,21.224001,8.549,9.966\O,0,22.017,7.705,10
 .427\O,0,21.614,9.703,9.719\N,0,16.462999,4.718,6.355\N,0,13.66,4.011,
 6.62\N,0,13.14,6.449,7.972\N,0,15.958,7.171,7.716\Fe,0,14.8,5.577,7.17
 3\H,0,15.509,1.919,4.891\H,0,10.619,4.383,7.761\H,0,14.006,9.453,8.992
 \H,0,18.559,2.389,3.503\H,0,17.482,1.487,4.268\H,0,18.969,1.618,4.844\
 H,0,20.082001,5.486,4.859\H,0,20.313,3.943,4.583\H,0,20.927999,3.61,6.
 753\H,0,20.593,5.117,7.107\H,0,12.253,0.232,4.972\H,0,13.774,0.115,5.3
 99\H,0,13.384,0.85,4.051\H,0,9.741,2.342,6.261\H,0,9.677,0.219,7.376\H
 ,0,11.352,0.258,7.503\H,0,9.127,6.536,7.957\H,0,9.151,7.566,9.16\H,0,9
 .395,6.025,9.432\H,0,11.542,10.182,8.829\H,0,10.265,10.394,10.776\H,0,
 10.318,8.729,10.987\H,0,17.481001,10.553,9.95\H,0,15.921,10.336,10.233
 \H,0,16.393999,11.129,8.926\H,0,19.197001,9.858,8.695\H,0,19.693001,8.
 714,7.718\H,0,19.780001,7.21,9.526\H,0,19.288,8.357,10.503\H,0,19.062,
 6.557,6.991\H,0,12.11841389,8.01882268,2.19712197\H,0,14.72402436,7.00
 224796,11.87590368\H,0,22.55401012,9.89357072,9.6782106\H,0,23.7082532
 3,5.13485011,4.74276159\\Version=ES64L-G16RevA.03\State=5-A\HF=-3878.9
 314694\S2=6.04808\S2-1=0.\S2A=6.000644\RMSD=2.263e-09\Dipole=-1.160976
 3,0.9547347,-2.7609027\Quadrupole=-21.3335433,9.2486842,12.0848591,8.6
 969144,-20.8923336,-6.6495689\PG=C01 [X(C41H46Fe1N6O4S1)]\\@


 LENDING MONEY TO FRIENDS CAUSES THEM TO LOSE THEIR MEMORIES.

    --  PETER'S THEORY OF RECIPROCAL INHIBITION OF FISCAL RECALL
 Job cpu time:      15 days 20 hours  6 minutes 28.8 seconds.
 Elapsed time:       3 days 23 hours 18 minutes 44.4 seconds.
 File lengths (MBytes):  RWF=   3452 Int=      0 D2E=      0 Chk=    289 Scr=      1
 Normal termination of Gaussian 16 at Mon Sep 12 09:56:46 2022.
