 Entering Gaussian System, Link 0=g16
 Input=/net/homes/chemie/zhartovska/work/BioModel/Konrad/6xcx/6xcx12/6xcx16/6xcx16.com
 Output=/net/homes/chemie/zhartovska/work/BioModel/Konrad/6xcx/6xcx12/6xcx16/6xcx16.log
 Initial command:
 /afs/math/software/gaussian/g16.A03/g16/l1.exe "/scratch/zhartovska_gaussian.dprLoM4/Gau-30597.inp" -scrdir="/scratch/zhartovska_gaussian.dprLoM4/"
 Entering Link 1 = /afs/math/software/gaussian/g16.A03/g16/l1.exe PID=     30598.
  
 Copyright (c) 1988,1990,1992,1993,1995,1998,2003,2009,2016,
            Gaussian, Inc.  All Rights Reserved.
  
 This is part of the Gaussian(R) 16 program.  It is based on
 the Gaussian(R) 09 system (copyright 2009, Gaussian, Inc.),
 the Gaussian(R) 03 system (copyright 2003, Gaussian, Inc.),
 the Gaussian(R) 98 system (copyright 1998, Gaussian, Inc.),
 the Gaussian(R) 94 system (copyright 1995, Gaussian, Inc.),
 the Gaussian 92(TM) system (copyright 1992, Gaussian, Inc.),
 the Gaussian 90(TM) system (copyright 1990, Gaussian, Inc.),
 the Gaussian 88(TM) system (copyright 1988, Gaussian, Inc.),
 the Gaussian 86(TM) system (copyright 1986, Carnegie Mellon
 University), and the Gaussian 82(TM) system (copyright 1983,
 Carnegie Mellon University). Gaussian is a federally registered
 trademark of Gaussian, Inc.
  
 This software contains proprietary and confidential information,
 including trade secrets, belonging to Gaussian, Inc.
  
 This software is provided under written license and may be
 used, copied, transmitted, or stored only in accord with that
 written license.
  
 The following legend is applicable only to US Government
 contracts under FAR:
  
                    RESTRICTED RIGHTS LEGEND
  
 Use, reproduction and disclosure by the US Government is
 subject to restrictions as set forth in subparagraphs (a)
 and (c) of the Commercial Computer Software - Restricted
 Rights clause in FAR 52.227-19.
  
 Gaussian, Inc.
 340 Quinnipiac St., Bldg. 40, Wallingford CT 06492
  
  
 ---------------------------------------------------------------
 Warning -- This program may not be used in any manner that
 competes with the business of Gaussian, Inc. or will provide
 assistance to any competitor of Gaussian, Inc.  The licensee
 of this program is prohibited from giving any competitor of
 Gaussian, Inc. access to this program.  By using this program,
 the user acknowledges that Gaussian, Inc. is engaged in the
 business of creating and licensing software in the field of
 computational chemistry and represents and warrants to the
 licensee that it is not a competitor of Gaussian, Inc. and that
 it will not use this program in any manner prohibited above.
 ---------------------------------------------------------------
  

 Cite this work as:
 Gaussian 16, Revision A.03,
 M. J. Frisch, G. W. Trucks, H. B. Schlegel, G. E. Scuseria, 
 M. A. Robb, J. R. Cheeseman, G. Scalmani, V. Barone, 
 G. A. Petersson, H. Nakatsuji, X. Li, M. Caricato, A. V. Marenich, 
 J. Bloino, B. G. Janesko, R. Gomperts, B. Mennucci, H. P. Hratchian, 
 J. V. Ortiz, A. F. Izmaylov, J. L. Sonnenberg, D. Williams-Young, 
 F. Ding, F. Lipparini, F. Egidi, J. Goings, B. Peng, A. Petrone, 
 T. Henderson, D. Ranasinghe, V. G. Zakrzewski, J. Gao, N. Rega, 
 G. Zheng, W. Liang, M. Hada, M. Ehara, K. Toyota, R. Fukuda, 
 J. Hasegawa, M. Ishida, T. Nakajima, Y. Honda, O. Kitao, H. Nakai, 
 T. Vreven, K. Throssell, J. A. Montgomery, Jr., J. E. Peralta, 
 F. Ogliaro, M. J. Bearpark, J. J. Heyd, E. N. Brothers, K. N. Kudin, 
 V. N. Staroverov, T. A. Keith, R. Kobayashi, J. Normand, 
 K. Raghavachari, A. P. Rendell, J. C. Burant, S. S. Iyengar, 
 J. Tomasi, M. Cossi, J. M. Millam, M. Klene, C. Adamo, R. Cammi, 
 J. W. Ochterski, R. L. Martin, K. Morokuma, O. Farkas, 
 J. B. Foresman, and D. J. Fox, Gaussian, Inc., Wallingford CT, 2016.
 
 ******************************************
 Gaussian 16:  ES64L-G16RevA.03 25-Dec-2016
                 5-Feb-2023 
 ******************************************
 %nprocs=12
 Will use up to   12 processors via shared memory.
 %mem=16GB
 %oldchk=6xcx_III_D.chk
 %chk=6xcx_III_H.chk
 Copying data from "6xcx_III_D.chk" to current chk file "6xcx_III_H.chk"
 IOpt=  2 FromEx=T IUOpen= 4 IOptOp= 5 NList=   0 IFRang= 0 IUIn= 4 IUOut= 2.
 ----------------------------------------------------------------------
 # PBE1PBE/def2TZVP scf=qc empiricaldispersion=GD3BJ scf=maxcycle=999 g
 eom=check pop=nbo
 ----------------------------------------------------------------------
 1/29=2,38=1,172=1/1;
 2/12=2,40=1/2;
 3/5=44,7=101,11=2,14=-4,25=1,30=1,74=-13,124=41/1,2,3;
 4//1;
 5/5=2,7=999,8=3,38=5/8;
 6/7=2,8=2,9=2,10=2,28=1,40=1/1,7;
 99/5=1,9=1/99;
 ----------
 6xcx_III_H
 ----------
 Structure from the checkpoint file:  "6xcx_III_H.chk"
 Charge =  1 Multiplicity = 6
 Z-Matrix found in chk file.
 Fe,0,-0.149,17.275,21.799
 C,0,1.738,14.598,20.888
 C,0,-0.94,15.608,24.807
 C,0,-1.399,20.189,23.203
 C,0,0.646,18.94,18.997
 N,0,0.235,15.5,22.643
 C,0,1.129,14.579,22.118
 C,0,1.349,13.54,23.049
 C,0,0.602,13.815,24.144
 C,0,-0.083,15.025,23.899
 C,0,0.515,12.984,25.401
 C,0,2.234,12.33,22.867
 C,0,3.568,12.525,23.589
 C,0,4.255,11.201,23.822
 O,0,5.429,11.197,24.251
 O,0,3.664,10.114,23.604
 N,0,-0.984,17.779,23.668
 C,0,-1.24,16.966,24.702
 C,0,-1.864,17.684,25.762
 C,0,-2.015,18.968,25.346
 C,0,-1.446,19.015,23.968
 C,0,-2.292,17.149,27.107
 C,0,-2.615,20.058,26.153
 C,0,-3.376,21.013,25.61
 N,0,-0.39,19.25,21.192
 C,0,-0.834,20.295,21.935
 C,0,-0.643,21.481,21.2
 C,0,-0.059,21.133,19.979
 C,0,0.107,19.712,20.001
 C,0,-1.02,22.857,21.687
 C,0,0.336,22.037,18.873
 C,0,-0.414,23.057,18.457
 N,0,0.961,16.858,20.33
 C,0,1.133,17.646,19.249
 C,0,2.016,16.99,18.273
 C,0,2.323,15.786,18.788
 C,0,1.635,15.717,20.086
 C,0,2.463,17.573,16.956
 C,0,3.205,14.718,18.175
 C,0,4.686,15.12,18.225
 C,0,5.578,13.974,17.794
 O,0,6.628,13.72,18.427
 O,0,5.282,13.278,16.797
 C,0,-1.971,15.532,19.494
 S,0,-2.52,16.587,20.839
 H,0,5.19745429,12.83203845,16.27231825
 H,0,4.28914319,9.38928135,23.67869182
 H,0,-0.2998537,23.56803753,21.33955943
 H,0,-1.98742462,23.1160248,21.31030948
 H,0,-1.04030346,22.86357572,22.75678714
 H,0,0.14828792,23.65733182,17.77265068
 H,0,-1.28756335,22.68076651,17.96686183
 H,0,1.27117567,21.86173212,18.38348224
 H,0,-3.09437723,21.96434238,26.0106698
 H,0,-3.23874493,21.01813212,24.54885217
 H,0,-2.43218352,20.08060725,27.20702422
 H,0,-2.85406321,16.24882594,26.97035591
 H,0,-2.89925121,17.87674936,27.6035147
 H,0,-1.42608121,16.94218016,27.70055725
 H,0,0.52813879,13.62762211,26.25568003
 H,0,1.34930359,12.31549783,25.44507228
 H,0,-0.39411738,12.41977754,25.393345
 H,0,4.18722589,13.31887784,23.22676074
 H,0,3.56008132,13.20289377,24.41682687
 H,0,2.28631676,11.92677458,21.87726659
 H,0,1.76371399,11.37696826,22.9913446
 H,0,4.99779582,15.65448719,19.09793002
 H,0,4.92556353,16.07986986,17.81737375
 H,0,2.984253,13.71001405,18.45808142
 H,0,2.86372501,14.30442613,17.2490475
 H,0,3.19184144,16.92903599,16.50990526
 H,0,2.89355227,18.53853214,17.12114368
 H,0,1.62076615,17.66508779,16.30250021
 H,0,-1.95589657,14.51384669,19.82268788
 H,0,-2.64277363,15.62986317,18.66693108
 H,0,-2.92057432,17.35677397,21.8203706
 H,0,-1.37362878,15.02112994,25.5895916
 H,0,2.29182092,13.74666979,20.55122224
 H,0,0.69529041,19.33354202,18.00322179
 H,0,-1.83073519,21.07173083,23.62642769
 H,0,-0.98714315,15.82354346,19.19080352
 Recover connectivity data from disk.
 Stoichiometry    C35H36FeN4O4S(1+,6)
 Framework group  C1[X(C35H36FeN4O4S)]
 Deg. of freedom   237
 Full point group                 C1      NOp   1
 Largest Abelian subgroup         C1      NOp   1
 Largest concise Abelian subgroup C1      NOp   1
                         Standard orientation:                         
 ---------------------------------------------------------------------
 Center     Atomic      Atomic             Coordinates (Angstroms)
 Number     Number       Type             X           Y           Z
 ---------------------------------------------------------------------
      1         26           0        1.017703   -0.050158    0.309016
      2          6           0       -2.371938    0.104599    0.517352
      3          6           0        0.793846   -3.571069    0.384597
      4          6           0        4.314184   -0.382362   -0.714685
      5          6           0        1.279219    3.290341    0.141297
      6          7           0       -0.423572   -1.430029    0.479609
      7          6           0       -1.777532   -1.131142    0.455966
      8          6           0       -2.530140   -2.323041    0.368557
      9          6           0       -1.651954   -3.352724    0.333885
     10          6           0       -0.351946   -2.805702    0.397887
     11          6           0       -1.994620   -4.819788    0.241794
     12          6           0       -4.034875   -2.446607    0.337722
     13          6           0       -4.527607   -2.670787   -1.092601
     14          6           0       -5.920117   -3.253972   -1.099335
     15          8           0       -6.532357   -3.343011   -2.185414
     16          8           0       -6.461508   -3.657990   -0.040072
     17          7           0        2.282867   -1.685161   -0.103938
     18          6           0        2.009368   -2.990861    0.022583
     19          6           0        3.153036   -3.776311   -0.299269
     20          6           0        4.159769   -2.917485   -0.604917
     21          6           0        3.581023   -1.550265   -0.461336
     22          6           0        3.261031   -5.281870   -0.307315
     23          6           0        5.528214   -3.321339   -1.009402
     24          6           0        6.614256   -2.637312   -0.637093
     25          7           0        2.578036    1.239890   -0.168782
     26          6           0        3.806023    0.911870   -0.643819
     27          6           0        4.469262    2.093848   -1.026368
     28          6           0        3.605311    3.163691   -0.777317
     29          6           0        2.403318    2.597220   -0.246655
     30          6           0        5.863967    2.143661   -1.596448
     31          6           0        3.852861    4.604333   -1.021750
     32          6           0        5.008709    5.206641   -0.743908
     33          7           0       -0.261835    1.337842    0.295382
     34          6           0        0.032461    2.653742    0.265575
     35          6           0       -1.199391    3.454899    0.322931
     36          6           0       -2.216202    2.580755    0.428078
     37          6           0       -1.600241    1.245295    0.421066
     38          6           0       -1.275563    4.960448    0.281618
     39          6           0       -3.695445    2.892999    0.521153
     40          6           0       -4.249544    3.379652   -0.825550
     41          6           0       -5.758791    3.502548   -0.783024
     42          8           0       -6.451307    3.100759   -1.745672
     43          8           0       -6.327380    4.015680    0.206645
     44          6           0        0.272954    0.801046    3.532610
     45         16           0        1.692498   -0.076330    2.870374
     46          1           0       -6.730953    4.270261    0.710270
     47          1           0       -7.382016   -3.869641   -0.211738
     48          1           0        5.921504    2.919492   -2.331074
     49          1           0        6.563210    2.343167   -0.811492
     50          1           0        6.097100    1.203679   -2.051401
     51          1           0        5.005453    6.193164   -1.158228
     52          1           0        5.134067    5.265800    0.317075
     53          1           0        3.063166    5.190822   -1.442835
     54          1           0        7.270085   -2.525612   -1.475133
     55          1           0        6.322689   -1.671303   -0.281121
     56          1           0        5.650295   -4.190930   -1.620801
     57          1           0        2.864598   -5.672778    0.606431
     58          1           0        4.288617   -5.565251   -0.400383
     59          1           0        2.706432   -5.674824   -1.133697
     60          1           0       -1.327979   -5.299392   -0.444114
     61          1           0       -3.001425   -4.929911   -0.103339
     62          1           0       -1.897376   -5.270076    1.207550
     63          1           0       -4.348653   -1.872519   -1.782270
     64          1           0       -3.827183   -3.117849   -1.766725
     65          1           0       -4.580117   -1.733055    0.919492
     66          1           0       -4.474224   -3.065588    1.091866
     67          1           0       -3.841307    2.912323   -1.697242
     68          1           0       -3.725323    4.193042   -1.282155
     69          1           0       -4.293480    2.173493    1.040350
     70          1           0       -4.002631    3.449589    1.381818
     71          1           0       -2.299692    5.264200    0.220026
     72          1           0       -0.744476    5.321085   -0.574413
     73          1           0       -0.836566    5.364291    1.169927
     74          1           0       -0.463570    0.095346    3.855749
     75          1           0        0.580396    1.401331    4.363295
     76          1           0        2.728260   -0.716501    2.387177
     77          1           0        0.751187   -4.606501    0.650979
     78          1           0       -3.431977    0.183691    0.639667
     79          1           0        1.356254    4.336391    0.352824
     80          1           0        5.343853   -0.494395   -0.983259
     81          1           0       -0.143966    1.429350    2.773459
 ---------------------------------------------------------------------
 Rotational constants (GHZ):           0.0800601           0.0515527           0.0348954
 Standard basis: def2TZVP (5D, 7F)
 There are  1858 symmetry adapted cartesian basis functions of A   symmetry.
 There are  1631 symmetry adapted basis functions of A   symmetry.
  1631 basis functions,  2652 primitive gaussians,  1858 cartesian basis functions
   176 alpha electrons      171 beta electrons
       nuclear repulsion energy      6510.1900794815 Hartrees.
 NAtoms=   81 NActive=   81 NUniq=   81 SFac= 1.00D+00 NAtFMM=   60 NAOKFM=T Big=T
 Integral buffers will be    131072 words long.
 Raffenetti 2 integral format.
 Two-electron integral symmetry is turned on.
 Nuclear repulsion after empirical dispersion term =     6510.0742202631 Hartrees.
 One-electron integrals computed using PRISM.
   1 Symmetry operations used in ECPInt.
 ECPInt:  NShTT=  208335 NPrTT=  650379 LenC2=  150287 LenP2D=  305724.
 LDataN:  DoStor=T MaxTD1= 6 Len=  172
 NBasis=  1631 RedAO= T EigKep=  3.10D-06  NBF=  1631
 NBsUse=  1631 1.00D-06 EigRej= -1.00D+00 NBFU=  1631
 ExpMin= 4.20D-02 ExpMax= 3.01D+05 ExpMxC= 2.91D+03 IAcc=3 IRadAn=         5 AccDes= 0.00D+00
 Harris functional with IExCor= 1009 and IRadAn=       5 diagonalized for initial guess.
 HarFok:  IExCor= 1009 AccDes= 0.00D+00 IRadAn=         5 IDoV= 1 UseB2=F ITyADJ=14
 ICtDFT=  3500011 ScaDFX=  1.000000  1.000000  1.000000  1.000000
 FoFCou: FMM=F IPFlag=           0 FMFlag=      100000 FMFlg1=        2001
         NFxFlg=           0 DoJE=T BraDBF=F KetDBF=T FulRan=T
         wScrn=  0.000000 ICntrl=       500 IOpCl=  0 I1Cent=   200000004 NGrid=           0
         NMat0=    1 NMatS0=      1 NMatT0=    0 NMatD0=    1 NMtDS0=    0 NMtDT0=    0
 Petite list used in FoFCou.
 Initial guess <Sx>= 0.0000 <Sy>= 0.0000 <Sz>= 2.5000 <S**2>= 8.7500 S= 2.5000
 Gradient too large for Newton-Raphson -- use scaled steepest descent instead.
 Gradient too large for Newton-Raphson -- use scaled steepest descent instead.
 Gradient too large for Newton-Raphson -- use scaled steepest descent instead.
     Minimum is close to point  2 DX=  9.37D-03 DF= -4.28D-05 DXR=  2.29D-02 DFR=  5.24D-04 which will be used.
 Gradient too large for Newton-Raphson -- use scaled steepest descent instead.
 Gradient too large for Newton-Raphson -- use scaled steepest descent instead.
     Accept linear search using points  1 and  2.
 Gradient too large for Newton-Raphson -- use scaled steepest descent instead.
     Minimum is close to point  2 DX=  1.16D-02 DF= -8.03D-05 DXR=  5.48D-02 DFR=  3.01D-03 which will be used.
 Gradient too large for Newton-Raphson -- use scaled steepest descent instead.
 Gradient too large for Newton-Raphson -- use scaled steepest descent instead.
 Restarting incremental Fock formation.
 Gradient too large for Newton-Raphson -- use scaled steepest descent instead.
     Accept linear search using points  1 and  2.
 Gradient too large for Newton-Raphson -- use scaled steepest descent instead.
     Accept linear search using points  6 and  7.
 Gradient too large for Newton-Raphson -- use scaled steepest descent instead.
 Gradient too large for Newton-Raphson -- use scaled steepest descent instead.
 Gradient too large for Newton-Raphson -- use scaled steepest descent instead.
 Gradient too large for Newton-Raphson -- use scaled steepest descent instead.
 Restarting incremental Fock formation.
 Gradient too large for Newton-Raphson -- use scaled steepest descent instead.
 Gradient too large for Newton-Raphson -- use scaled steepest descent instead.
     Accept linear search using points  1 and  2.
 Gradient too large for Newton-Raphson -- use scaled steepest descent instead.
     Accept linear search using points  5 and  6.
     Minimum is close to point  6 DX= -4.20D-02 DF= -2.29D-06 DXR=  1.52D-02 DFR=  2.60D-04 which will be used.
 Gradient too large for Newton-Raphson -- use scaled steepest descent instead.
 Gradient too large for Newton-Raphson -- use scaled steepest descent instead.
     Minimum is close to point  2 DX= -1.47D-01 DF= -4.82D-05 DXR=  5.54D-02 DFR=  3.08D-03 which will be used.
 Gradient too large for Newton-Raphson -- use scaled steepest descent instead.
 Restarting incremental Fock formation.
 Gradient too large for Newton-Raphson -- use scaled steepest descent instead.
 Gradient too large for Newton-Raphson -- use scaled steepest descent instead.
     Accept linear search using points  1 and  2.
 Gradient too large for Newton-Raphson -- use scaled steepest descent instead.
     Accept linear search using points  1 and  2.
 Gradient too large for Newton-Raphson -- use scaled steepest descent instead.
     Minimum is close to point  3 DX=  6.72D-03 DF= -5.85D-06 DXR=  3.25D-02 DFR=  1.06D-03 which will be used.
 Gradient too large for Newton-Raphson -- use scaled steepest descent instead.
     Accept linear search using points  2 and  3.
 Gradient too large for Newton-Raphson -- use scaled steepest descent instead.
     Minimum is close to point  3 DX=  1.63D-02 DF= -1.43D-05 DXR=  7.54D-02 DFR=  5.71D-03 which will be used.
 Gradient too large for Newton-Raphson -- use scaled steepest descent instead.
     Accept linear search using points  1 and  2.
     Minimum is close to point  2 DX= -6.35D-02 DF= -6.34D-06 DXR=  4.75D-02 DFR=  3.81D-03 which will be used.
 Gradient too large for Newton-Raphson -- use scaled steepest descent instead.
     Accept linear search using points  1 and  2.
 Gradient too large for Newton-Raphson -- use scaled steepest descent instead.
 Restarting incremental Fock formation.
 Gradient too large for Newton-Raphson -- use scaled steepest descent instead.
     Accept linear search using points  1 and  2.
 LinEq1:  Iter=  0 NonCon=     1 RMS=6.78D-05 Max=2.41D-02 NDo=     1
 AX will form     1 AO Fock derivatives at one time.
 LinEq1:  Iter=  1 NonCon=     1 RMS=1.59D-05 Max=3.42D-03 NDo=     1
 LinEq1:  Iter=  2 NonCon=     1 RMS=3.57D-05 Max=9.59D-03 NDo=     1
 LinEq1:  Iter=  3 NonCon=     1 RMS=3.00D-05 Max=3.87D-03 NDo=     1
 LinEq1:  Iter=  4 NonCon=     1 RMS=1.91D-05 Max=3.11D-03 NDo=     1
 LinEq1:  Iter=  5 NonCon=     1 RMS=2.99D-05 Max=6.45D-03 NDo=     1
 LinEq1:  Iter=  6 NonCon=     1 RMS=2.49D-05 Max=3.20D-03 NDo=     1
 LinEq1:  Iter=  7 NonCon=     1 RMS=2.45D-05 Max=3.73D-03 NDo=     1
 LinEq1:  Iter=  8 NonCon=     1 RMS=1.94D-05 Max=2.52D-03 NDo=     1
 LinEq1:  Iter=  9 NonCon=     1 RMS=1.48D-05 Max=2.55D-03 NDo=     1
 LinEq1:  Iter= 10 NonCon=     1 RMS=1.22D-05 Max=1.92D-03 NDo=     1
 LinEq1:  Iter= 11 NonCon=     1 RMS=1.28D-05 Max=2.23D-03 NDo=     1
 LinEq1:  Iter= 12 NonCon=     1 RMS=1.15D-05 Max=1.92D-03 NDo=     1
 LinEq1:  Iter= 13 NonCon=     1 RMS=1.24D-05 Max=1.59D-03 NDo=     1
 LinEq1:  Iter= 14 NonCon=     1 RMS=1.18D-05 Max=2.10D-03 NDo=     1
 LinEq1:  Iter= 15 NonCon=     1 RMS=1.11D-05 Max=1.63D-03 NDo=     1
 LinEq1:  Iter= 16 NonCon=     1 RMS=8.74D-06 Max=9.73D-04 NDo=     1
 LinEq1:  Iter= 17 NonCon=     1 RMS=7.99D-06 Max=7.94D-04 NDo=     1
 LinEq1:  Iter= 18 NonCon=     1 RMS=5.88D-06 Max=9.32D-04 NDo=     1
 LinEq1:  Iter= 19 NonCon=     1 RMS=4.18D-06 Max=6.82D-04 NDo=     1
 LinEq1:  Iter= 20 NonCon=     1 RMS=3.38D-06 Max=3.87D-04 NDo=     1
 LinEq1:  Iter= 21 NonCon=     1 RMS=2.50D-06 Max=2.89D-04 NDo=     1
 LinEq1:  Iter= 22 NonCon=     1 RMS=1.63D-06 Max=1.92D-04 NDo=     1
 LinEq1:  Iter= 23 NonCon=     1 RMS=1.20D-06 Max=1.65D-04 NDo=     1
 LinEq1:  Iter= 24 NonCon=     1 RMS=8.64D-07 Max=1.76D-04 NDo=     1
 LinEq1:  Iter= 25 NonCon=     1 RMS=7.42D-07 Max=1.54D-04 NDo=     1
 LinEq1:  Iter= 26 NonCon=     1 RMS=5.22D-07 Max=7.95D-05 NDo=     1
 LinEq1:  Iter= 27 NonCon=     1 RMS=4.33D-07 Max=6.45D-05 NDo=     1
 LinEq1:  Iter= 28 NonCon=     1 RMS=3.49D-07 Max=3.91D-05 NDo=     1
 LinEq1:  Iter= 29 NonCon=     1 RMS=2.40D-07 Max=2.72D-05 NDo=     1
 LinEq1:  Iter= 30 NonCon=     1 RMS=1.61D-07 Max=1.71D-05 NDo=     1
 LinEq1:  Iter= 31 NonCon=     1 RMS=1.21D-07 Max=1.23D-05 NDo=     1
 LinEq1:  Iter= 32 NonCon=     1 RMS=8.50D-08 Max=9.77D-06 NDo=     1
 LinEq1:  Iter= 33 NonCon=     1 RMS=7.33D-08 Max=1.01D-05 NDo=     1
 LinEq1:  Iter= 34 NonCon=     1 RMS=5.39D-08 Max=7.89D-06 NDo=     1
 LinEq1:  Iter= 35 NonCon=     1 RMS=4.03D-08 Max=3.93D-06 NDo=     1
 LinEq1:  Iter= 36 NonCon=     1 RMS=2.89D-08 Max=3.38D-06 NDo=     1
 LinEq1:  Iter= 37 NonCon=     1 RMS=1.94D-08 Max=2.19D-06 NDo=     1
 LinEq1:  Iter= 38 NonCon=     1 RMS=1.40D-08 Max=1.70D-06 NDo=     1
 LinEq1:  Iter= 39 NonCon=     1 RMS=1.16D-08 Max=1.64D-06 NDo=     1
 LinEq1:  Iter= 40 NonCon=     1 RMS=8.74D-09 Max=8.14D-07 NDo=     1
 LinEq1:  Iter= 41 NonCon=     0 RMS=5.68D-09 Max=5.61D-07 NDo=     1
 Linear equations converged to 6.909D-08 6.909D-07 after    41 iterations.
     Accept linear search using points  1 and  2.
     Minimum is close to point  2 DX= -4.81D-02 DF= -1.32D-06 DXR=  5.05D-02 DFR=  2.65D-03 which will be used.
 LinEq1:  Iter=  0 NonCon=     1 RMS=6.69D-06 Max=1.15D-03 NDo=     1
 LinEq1:  Iter=  1 NonCon=     1 RMS=1.41D-05 Max=4.39D-03 NDo=     1
 LinEq1:  Iter=  2 NonCon=     1 RMS=1.17D-05 Max=2.71D-03 NDo=     1
 LinEq1:  Iter=  3 NonCon=     1 RMS=7.19D-06 Max=7.55D-04 NDo=     1
 LinEq1:  Iter=  4 NonCon=     1 RMS=7.75D-06 Max=1.35D-03 NDo=     1
 LinEq1:  Iter=  5 NonCon=     1 RMS=8.01D-06 Max=1.77D-03 NDo=     1
 LinEq1:  Iter=  6 NonCon=     1 RMS=6.52D-06 Max=9.30D-04 NDo=     1
 LinEq1:  Iter=  7 NonCon=     1 RMS=4.22D-06 Max=5.48D-04 NDo=     1
 LinEq1:  Iter=  8 NonCon=     1 RMS=3.68D-06 Max=7.81D-04 NDo=     1
 LinEq1:  Iter=  9 NonCon=     1 RMS=4.33D-06 Max=8.37D-04 NDo=     1
 LinEq1:  Iter= 10 NonCon=     1 RMS=4.33D-06 Max=5.18D-04 NDo=     1
 LinEq1:  Iter= 11 NonCon=     1 RMS=4.15D-06 Max=4.64D-04 NDo=     1
 LinEq1:  Iter= 12 NonCon=     1 RMS=4.06D-06 Max=4.13D-04 NDo=     1
 LinEq1:  Iter= 13 NonCon=     1 RMS=3.16D-06 Max=3.06D-04 NDo=     1
 LinEq1:  Iter= 14 NonCon=     1 RMS=3.05D-06 Max=3.46D-04 NDo=     1
 LinEq1:  Iter= 15 NonCon=     1 RMS=2.39D-06 Max=2.94D-04 NDo=     1
 LinEq1:  Iter= 16 NonCon=     1 RMS=1.99D-06 Max=2.71D-04 NDo=     1
 LinEq1:  Iter= 17 NonCon=     1 RMS=1.74D-06 Max=1.95D-04 NDo=     1
 LinEq1:  Iter= 18 NonCon=     1 RMS=1.30D-06 Max=1.21D-04 NDo=     1
 LinEq1:  Iter= 19 NonCon=     1 RMS=1.04D-06 Max=1.28D-04 NDo=     1
 LinEq1:  Iter= 20 NonCon=     1 RMS=8.07D-07 Max=9.12D-05 NDo=     1
 LinEq1:  Iter= 21 NonCon=     1 RMS=5.45D-07 Max=7.41D-05 NDo=     1
 LinEq1:  Iter= 22 NonCon=     1 RMS=4.37D-07 Max=4.65D-05 NDo=     1
 LinEq1:  Iter= 23 NonCon=     1 RMS=3.70D-07 Max=4.83D-05 NDo=     1
 LinEq1:  Iter= 24 NonCon=     1 RMS=2.67D-07 Max=2.52D-05 NDo=     1
 LinEq1:  Iter= 25 NonCon=     1 RMS=2.09D-07 Max=2.52D-05 NDo=     1
 LinEq1:  Iter= 26 NonCon=     1 RMS=1.60D-07 Max=2.23D-05 NDo=     1
 LinEq1:  Iter= 27 NonCon=     1 RMS=1.28D-07 Max=1.75D-05 NDo=     1
 LinEq1:  Iter= 28 NonCon=     1 RMS=9.97D-08 Max=1.26D-05 NDo=     1
 LinEq1:  Iter= 29 NonCon=     1 RMS=7.02D-08 Max=1.05D-05 NDo=     1
 LinEq1:  Iter= 30 NonCon=     1 RMS=4.97D-08 Max=5.24D-06 NDo=     1
 LinEq1:  Iter= 31 NonCon=     1 RMS=3.58D-08 Max=3.49D-06 NDo=     1
 LinEq1:  Iter= 32 NonCon=     1 RMS=2.53D-08 Max=3.10D-06 NDo=     1
 LinEq1:  Iter= 33 NonCon=     1 RMS=1.65D-08 Max=1.87D-06 NDo=     1
 LinEq1:  Iter= 34 NonCon=     1 RMS=1.46D-08 Max=1.83D-06 NDo=     1
 LinEq1:  Iter= 35 NonCon=     1 RMS=1.08D-08 Max=1.23D-06 NDo=     1
 LinEq1:  Iter= 36 NonCon=     1 RMS=8.86D-09 Max=9.36D-07 NDo=     1
 LinEq1:  Iter= 37 NonCon=     1 RMS=6.47D-09 Max=7.11D-07 NDo=     1
 LinEq1:  Iter= 38 NonCon=     1 RMS=4.85D-09 Max=4.46D-07 NDo=     1
 LinEq1:  Iter= 39 NonCon=     1 RMS=2.95D-09 Max=2.67D-07 NDo=     1
 LinEq1:  Iter= 40 NonCon=     1 RMS=2.19D-09 Max=2.65D-07 NDo=     1
 LinEq1:  Iter= 41 NonCon=     0 RMS=1.67D-09 Max=1.58D-07 NDo=     1
 Linear equations converged to 2.263D-08 2.263D-07 after    41 iterations.
     Minimum is close to point  2 DX=  1.22D-02 DF= -5.16D-10 DXR=  1.21D-02 DFR=  1.46D-04 which will be used.
 LinEq1:  Iter=  0 NonCon=     1 RMS=7.19D-08 Max=2.25D-05 NDo=     1
 LinEq1:  Iter=  1 NonCon=     1 RMS=1.56D-07 Max=4.79D-05 NDo=     1
 LinEq1:  Iter=  2 NonCon=     1 RMS=3.87D-08 Max=6.80D-06 NDo=     1
 LinEq1:  Iter=  3 NonCon=     1 RMS=3.89D-08 Max=6.30D-06 NDo=     1
 LinEq1:  Iter=  4 NonCon=     1 RMS=2.59D-08 Max=3.41D-06 NDo=     1
 LinEq1:  Iter=  5 NonCon=     1 RMS=2.08D-08 Max=4.21D-06 NDo=     1
 LinEq1:  Iter=  6 NonCon=     1 RMS=2.86D-08 Max=6.76D-06 NDo=     1
 LinEq1:  Iter=  7 NonCon=     1 RMS=1.55D-08 Max=1.84D-06 NDo=     1
 LinEq1:  Iter=  8 NonCon=     1 RMS=1.43D-08 Max=2.50D-06 NDo=     1
 LinEq1:  Iter=  9 NonCon=     1 RMS=1.35D-08 Max=2.08D-06 NDo=     1
 LinEq1:  Iter= 10 NonCon=     1 RMS=1.45D-08 Max=3.32D-06 NDo=     1
 LinEq1:  Iter= 11 NonCon=     1 RMS=1.75D-08 Max=2.77D-06 NDo=     1
 LinEq1:  Iter= 12 NonCon=     1 RMS=1.62D-08 Max=1.78D-06 NDo=     1
 LinEq1:  Iter= 13 NonCon=     1 RMS=1.37D-08 Max=1.51D-06 NDo=     1
 LinEq1:  Iter= 14 NonCon=     1 RMS=1.26D-08 Max=1.35D-06 NDo=     1
 LinEq1:  Iter= 15 NonCon=     1 RMS=1.07D-08 Max=1.07D-06 NDo=     1
 LinEq1:  Iter= 16 NonCon=     1 RMS=9.38D-09 Max=1.11D-06 NDo=     1
 LinEq1:  Iter= 17 NonCon=     1 RMS=8.48D-09 Max=1.06D-06 NDo=     1
 LinEq1:  Iter= 18 NonCon=     1 RMS=6.21D-09 Max=6.22D-07 NDo=     1
 LinEq1:  Iter= 19 NonCon=     1 RMS=4.16D-09 Max=5.11D-07 NDo=     1
 LinEq1:  Iter= 20 NonCon=     1 RMS=3.23D-09 Max=3.99D-07 NDo=     1
 LinEq1:  Iter= 21 NonCon=     1 RMS=2.52D-09 Max=3.01D-07 NDo=     1
 LinEq1:  Iter= 22 NonCon=     1 RMS=1.85D-09 Max=2.10D-07 NDo=     1
 LinEq1:  Iter= 23 NonCon=     1 RMS=1.33D-09 Max=1.36D-07 NDo=     1
 LinEq1:  Iter= 24 NonCon=     1 RMS=1.05D-09 Max=1.07D-07 NDo=     1
 LinEq1:  Iter= 25 NonCon=     1 RMS=8.97D-10 Max=1.10D-07 NDo=     1
 LinEq1:  Iter= 26 NonCon=     1 RMS=6.87D-10 Max=7.34D-08 NDo=     1
 LinEq1:  Iter= 27 NonCon=     1 RMS=4.30D-10 Max=4.02D-08 NDo=     1
 LinEq1:  Iter= 28 NonCon=     1 RMS=3.52D-10 Max=3.39D-08 NDo=     1
 LinEq1:  Iter= 29 NonCon=     1 RMS=2.58D-10 Max=2.62D-08 NDo=     1
 LinEq1:  Iter= 30 NonCon=     1 RMS=1.76D-10 Max=1.44D-08 NDo=     1
 LinEq1:  Iter= 31 NonCon=     1 RMS=1.57D-10 Max=1.28D-08 NDo=     1
 LinEq1:  Iter= 32 NonCon=     1 RMS=9.64D-11 Max=9.86D-09 NDo=     1
 LinEq1:  Iter= 33 NonCon=     1 RMS=5.76D-11 Max=7.56D-09 NDo=     1
 LinEq1:  Iter= 34 NonCon=     1 RMS=4.23D-11 Max=6.39D-09 NDo=     1
 LinEq1:  Iter= 35 NonCon=     1 RMS=3.58D-11 Max=5.05D-09 NDo=     1
 LinEq1:  Iter= 36 NonCon=     1 RMS=2.97D-11 Max=3.47D-09 NDo=     1
 LinEq1:  Iter= 37 NonCon=     1 RMS=2.14D-11 Max=3.33D-09 NDo=     1
 LinEq1:  Iter= 38 NonCon=     1 RMS=1.46D-11 Max=2.49D-09 NDo=     1
 LinEq1:  Iter= 39 NonCon=     1 RMS=1.18D-11 Max=1.49D-09 NDo=     1
 LinEq1:  Iter= 40 NonCon=     0 RMS=8.53D-12 Max=1.15D-09 NDo=     1
 Linear equations converged to 1.393D-10 1.393D-09 after    40 iterations.
 SCF Done:  E(UPBE1PBE) =  -3534.88895261     a.u. after   34 cycles
            Convg  =    0.7752D-08                   209 Fock formations.
              S**2 =  8.7795                  -V/T =  2.0024
 <Sx>= 0.0000 <Sy>= 0.0000 <Sz>= 2.5000 <S**2>= 8.7795 S= 2.5049
 <L.S>= 0.000000000000E+00
 Annihilation of the first spin contaminant:
 S**2 before annihilation     8.7795,   after     8.7502

 **********************************************************************

            Population analysis using the SCF density.

 **********************************************************************

 Orbital symmetries:
 Alpha Orbitals:
       Occupied  (A) (A) (A) (A) (A) (A) (A) (A) (A) (A) (A) (A)
                 (A) (A) (A) (A) (A) (A) (A) (A) (A) (A) (A) (A)
                 (A) (A) (A) (A) (A) (A) (A) (A) (A) (A) (A) (A)
                 (A) (A) (A) (A) (A) (A) (A) (A) (A) (A) (A) (A)
                 (A) (A) (A) (A) (A) (A) (A) (A) (A) (A) (A) (A)
                 (A) (A) (A) (A) (A) (A) (A) (A) (A) (A) (A) (A)
                 (A) (A) (A) (A) (A) (A) (A) (A) (A) (A) (A) (A)
                 (A) (A) (A) (A) (A) (A) (A) (A) (A) (A) (A) (A)
                 (A) (A) (A) (A) (A) (A) (A) (A) (A) (A) (A) (A)
                 (A) (A) (A) (A) (A) (A) (A) (A) (A) (A) (A) (A)
                 (A) (A) (A) (A) (A) (A) (A) (A) (A) (A) (A) (A)
                 (A) (A) (A) (A) (A) (A) (A) (A) (A) (A) (A) (A)
                 (A) (A) (A) (A) (A) (A) (A) (A) (A) (A) (A) (A)
                 (A) (A) (A) (A) (A) (A) (A) (A) (A) (A) (A) (A)
                 (A) (A) (A) (A) (A) (A) (A) (A)
       Virtual   (A) (A) (A) (A) (A) (A) (A) (A) (A) (A) (A) (A)
                 (A) (A) (A) (A) (A) (A) (A) (A) (A) (A) (A) (A)
                 (A) (A) (A) (A) (A) (A) (A) (A) (A) (A) (A) (A)
                 (A) (A) (A) (A) (A) (A) (A) (A) (A) (A) (A) (A)
                 (A) (A) (A) (A) (A) (A) (A) (A) (A) (A) (A) (A)
                 (A) (A) (A) (A) (A) (A) (A) (A) (A) (A) (A) (A)
                 (A) (A) (A) (A) (A) (A) (A) (A) (A) (A) (A) (A)
                 (A) (A) (A) (A) (A) (A) (A) (A) (A) (A) (A) (A)
                 (A) (A) (A) (A) (A) (A) (A) (A) (A) (A) (A) (A)
                 (A) (A) (A) (A) (A) (A) (A) (A) (A) (A) (A) (A)
                 (A) (A) (A) (A) (A) (A) (A) (A) (A) (A) (A) (A)
                 (A) (A) (A) (A) (A) (A) (A) (A) (A) (A) (A) (A)
                 (A) (A) (A) (A) (A) (A) (A) (A) (A) (A) (A) (A)
                 (A) (A) (A) (A) (A) (A) (A) (A) (A) (A) (A) (A)
                 (A) (A) (A) (A) (A) (A) (A) (A) (A) (A) (A) (A)
                 (A) (A) (A) (A) (A) (A) (A) (A) (A) (A) (A) (A)
                 (A) (A) (A) (A) (A) (A) (A) (A) (A) (A) (A) (A)
                 (A) (A) (A) (A) (A) (A) (A) (A) (A) (A) (A) (A)
                 (A) (A) (A) (A) (A) (A) (A) (A) (A) (A) (A) (A)
                 (A) (A) (A) (A) (A) (A) (A) (A) (A) (A) (A) (A)
                 (A) (A) (A) (A) (A) (A) (A) (A) (A) (A) (A) (A)
                 (A) (A) (A) (A) (A) (A) (A) (A) (A) (A) (A) (A)
                 (A) (A) (A) (A) (A) (A) (A) (A) (A) (A) (A) (A)
                 (A) (A) (A) (A) (A) (A) (A) (A) (A) (A) (A) (A)
                 (A) (A) (A) (A) (A) (A) (A) (A) (A) (A) (A) (A)
                 (A) (A) (A) (A) (A) (A) (A) (A) (A) (A) (A) (A)
                 (A) (A) (A) (A) (A) (A) (A) (A) (A) (A) (A) (A)
                 (A) (A) (A) (A) (A) (A) (A) (A) (A) (A) (A) (A)
                 (A) (A) (A) (A) (A) (A) (A) (A) (A) (A) (A) (A)
                 (A) (A) (A) (A) (A) (A) (A) (A) (A) (A) (A) (A)
                 (A) (A) (A) (A) (A) (A) (A) (A) (A) (A) (A) (A)
                 (A) (A) (A) (A) (A) (A) (A) (A) (A) (A) (A) (A)
                 (A) (A) (A) (A) (A) (A) (A) (A) (A) (A) (A) (A)
                 (A) (A) (A) (A) (A) (A) (A) (A) (A) (A) (A) (A)
                 (A) (A) (A) (A) (A) (A) (A) (A) (A) (A) (A) (A)
                 (A) (A) (A) (A) (A) (A) (A) (A) (A) (A) (A) (A)
                 (A) (A) (A) (A) (A) (A) (A) (A) (A) (A) (A) (A)
                 (A) (A) (A) (A) (A) (A) (A) (A) (A) (A) (A) (A)
                 (A) (A) (A) (A) (A) (A) (A) (A) (A) (A) (A) (A)
                 (A) (A) (A) (A) (A) (A) (A) (A) (A) (A) (A) (A)
                 (A) (A) (A) (A) (A) (A) (A) (A) (A) (A) (A) (A)
                 (A) (A) (A) (A) (A) (A) (A) (A) (A) (A) (A) (A)
                 (A) (A) (A) (A) (A) (A) (A) (A) (A) (A) (A) (A)
                 (A) (A) (A) (A) (A) (A) (A) (A) (A) (A) (A) (A)
                 (A) (A) (A) (A) (A) (A) (A) (A) (A) (A) (A) (A)
                 (A) (A) (A) (A) (A) (A) (A) (A) (A) (A) (A) (A)
                 (A) (A) (A) (A) (A) (A) (A) (A) (A) (A) (A) (A)
                 (A) (A) (A) (A) (A) (A) (A) (A) (A) (A) (A) (A)
                 (A) (A) (A) (A) (A) (A) (A) (A) (A) (A) (A) (A)
                 (A) (A) (A) (A) (A) (A) (A) (A) (A) (A) (A) (A)
                 (A) (A) (A) (A) (A) (A) (A) (A) (A) (A) (A) (A)
                 (A) (A) (A) (A) (A) (A) (A) (A) (A) (A) (A) (A)
                 (A) (A) (A) (A) (A) (A) (A) (A) (A) (A) (A) (A)
                 (A) (A) (A) (A) (A) (A) (A) (A) (A) (A) (A) (A)
                 (A) (A) (A) (A) (A) (A) (A) (A) (A) (A) (A) (A)
                 (A) (A) (A) (A) (A) (A) (A) (A) (A) (A) (A) (A)
                 (A) (A) (A) (A) (A) (A) (A) (A) (A) (A) (A) (A)
                 (A) (A) (A) (A) (A) (A) (A) (A) (A) (A) (A) (A)
                 (A) (A) (A) (A) (A) (A) (A) (A) (A) (A) (A) (A)
                 (A) (A) (A) (A) (A) (A) (A) (A) (A) (A) (A) (A)
                 (A) (A) (A) (A) (A) (A) (A) (A) (A) (A) (A) (A)
                 (A) (A) (A) (A) (A) (A) (A) (A) (A) (A) (A) (A)
                 (A) (A) (A) (A) (A) (A) (A) (A) (A) (A) (A) (A)
                 (A) (A) (A) (A) (A) (A) (A) (A) (A) (A) (A) (A)
                 (A) (A) (A) (A) (A) (A) (A) (A) (A) (A) (A) (A)
                 (A) (A) (A) (A) (A) (A) (A) (A) (A) (A) (A) (A)
                 (A) (A) (A) (A) (A) (A) (A) (A) (A) (A) (A) (A)
                 (A) (A) (A) (A) (A) (A) (A) (A) (A) (A) (A) (A)
                 (A) (A) (A) (A) (A) (A) (A) (A) (A) (A) (A) (A)
                 (A) (A) (A) (A) (A) (A) (A) (A) (A) (A) (A) (A)
                 (A) (A) (A) (A) (A) (A) (A) (A) (A) (A) (A) (A)
                 (A) (A) (A) (A) (A) (A) (A) (A) (A) (A) (A) (A)
                 (A) (A) (A) (A) (A) (A) (A) (A) (A) (A) (A) (A)
                 (A) (A) (A) (A) (A) (A) (A) (A) (A) (A) (A) (A)
                 (A) (A) (A) (A) (A) (A) (A) (A) (A) (A) (A) (A)
                 (A) (A) (A) (A) (A) (A) (A) (A) (A) (A) (A) (A)
                 (A) (A) (A) (A) (A) (A) (A) (A) (A) (A) (A) (A)
                 (A) (A) (A) (A) (A) (A) (A) (A) (A) (A) (A) (A)
                 (A) (A) (A) (A) (A) (A) (A) (A) (A) (A) (A) (A)
                 (A) (A) (A) (A) (A) (A) (A) (A) (A) (A) (A) (A)
                 (A) (A) (A) (A) (A) (A) (A) (A) (A) (A) (A) (A)
                 (A) (A) (A) (A) (A) (A) (A) (A) (A) (A) (A) (A)
                 (A) (A) (A) (A) (A) (A) (A) (A) (A) (A) (A) (A)
                 (A) (A) (A) (A) (A) (A) (A) (A) (A) (A) (A) (A)
                 (A) (A) (A) (A) (A) (A) (A) (A) (A) (A) (A) (A)
                 (A) (A) (A) (A) (A) (A) (A) (A) (A) (A) (A) (A)
                 (A) (A) (A) (A) (A) (A) (A) (A) (A) (A) (A) (A)
                 (A) (A) (A) (A) (A) (A) (A) (A) (A) (A) (A) (A)
                 (A) (A) (A) (A) (A) (A) (A) (A) (A) (A) (A) (A)
                 (A) (A) (A) (A) (A) (A) (A) (A) (A) (A) (A) (A)
                 (A) (A) (A) (A) (A) (A) (A) (A) (A) (A) (A) (A)
                 (A) (A) (A) (A) (A) (A) (A) (A) (A) (A) (A) (A)
                 (A) (A) (A) (A) (A) (A) (A) (A) (A) (A) (A) (A)
                 (A) (A) (A) (A) (A) (A) (A) (A) (A) (A) (A) (A)
                 (A) (A) (A) (A) (A) (A) (A) (A) (A) (A) (A) (A)
                 (A) (A) (A) (A) (A) (A) (A) (A) (A) (A) (A) (A)
                 (A) (A) (A) (A) (A) (A) (A) (A) (A) (A) (A) (A)
                 (A) (A) (A) (A) (A) (A) (A) (A) (A) (A) (A) (A)
                 (A) (A) (A) (A) (A) (A) (A) (A) (A) (A) (A) (A)
                 (A) (A) (A) (A) (A) (A) (A) (A) (A) (A) (A) (A)
                 (A) (A) (A) (A) (A) (A) (A) (A) (A) (A) (A) (A)
                 (A) (A) (A) (A) (A) (A) (A) (A) (A) (A) (A) (A)
                 (A) (A) (A) (A) (A) (A) (A) (A) (A) (A) (A) (A)
                 (A) (A) (A) (A) (A) (A) (A) (A) (A) (A) (A) (A)
                 (A) (A) (A) (A) (A) (A) (A) (A) (A) (A) (A) (A)
                 (A) (A) (A) (A) (A) (A) (A) (A) (A) (A) (A) (A)
                 (A) (A) (A) (A) (A) (A) (A) (A) (A) (A) (A) (A)
                 (A) (A) (A) (A) (A) (A) (A) (A) (A) (A) (A) (A)
                 (A) (A) (A) (A) (A) (A) (A) (A) (A) (A) (A) (A)
                 (A) (A) (A) (A) (A) (A) (A) (A) (A) (A) (A) (A)
                 (A) (A) (A) (A) (A) (A) (A) (A) (A) (A) (A) (A)
                 (A) (A) (A) (A) (A) (A) (A) (A) (A) (A) (A) (A)
                 (A) (A) (A) (A) (A) (A) (A) (A) (A) (A) (A) (A)
                 (A) (A) (A) (A) (A) (A) (A) (A) (A) (A) (A) (A)
                 (A) (A) (A) (A) (A) (A) (A) (A) (A) (A) (A) (A)
                 (A) (A) (A) (A) (A) (A) (A) (A) (A) (A) (A) (A)
                 (A) (A) (A) (A) (A) (A) (A) (A) (A) (A) (A) (A)
                 (A) (A) (A) (A) (A) (A) (A) (A) (A) (A) (A) (A)
                 (A) (A) (A) (A) (A) (A) (A) (A) (A) (A) (A) (A)
                 (A) (A) (A) (A) (A) (A) (A) (A) (A) (A) (A) (A)
                 (A) (A) (A) (A) (A) (A) (A) (A) (A) (A) (A) (A)
                 (A) (A) (A)
 Beta  Orbitals:
       Occupied  (A) (A) (A) (A) (A) (A) (A) (A) (A) (A) (A) (A)
                 (A) (A) (A) (A) (A) (A) (A) (A) (A) (A) (A) (A)
                 (A) (A) (A) (A) (A) (A) (A) (A) (A) (A) (A) (A)
                 (A) (A) (A) (A) (A) (A) (A) (A) (A) (A) (A) (A)
                 (A) (A) (A) (A) (A) (A) (A) (A) (A) (A) (A) (A)
                 (A) (A) (A) (A) (A) (A) (A) (A) (A) (A) (A) (A)
                 (A) (A) (A) (A) (A) (A) (A) (A) (A) (A) (A) (A)
                 (A) (A) (A) (A) (A) (A) (A) (A) (A) (A) (A) (A)
                 (A) (A) (A) (A) (A) (A) (A) (A) (A) (A) (A) (A)
                 (A) (A) (A) (A) (A) (A) (A) (A) (A) (A) (A) (A)
                 (A) (A) (A) (A) (A) (A) (A) (A) (A) (A) (A) (A)
                 (A) (A) (A) (A) (A) (A) (A) (A) (A) (A) (A) (A)
                 (A) (A) (A) (A) (A) (A) (A) (A) (A) (A) (A) (A)
                 (A) (A) (A) (A) (A) (A) (A) (A) (A) (A) (A) (A)
                 (A) (A) (A)
       Virtual   (A) (A) (A) (A) (A) (A) (A) (A) (A) (A) (A) (A)
                 (A) (A) (A) (A) (A) (A) (A) (A) (A) (A) (A) (A)
                 (A) (A) (A) (A) (A) (A) (A) (A) (A) (A) (A) (A)
                 (A) (A) (A) (A) (A) (A) (A) (A) (A) (A) (A) (A)
                 (A) (A) (A) (A) (A) (A) (A) (A) (A) (A) (A) (A)
                 (A) (A) (A) (A) (A) (A) (A) (A) (A) (A) (A) (A)
                 (A) (A) (A) (A) (A) (A) (A) (A) (A) (A) (A) (A)
                 (A) (A) (A) (A) (A) (A) (A) (A) (A) (A) (A) (A)
                 (A) (A) (A) (A) (A) (A) (A) (A) (A) (A) (A) (A)
                 (A) (A) (A) (A) (A) (A) (A) (A) (A) (A) (A) (A)
                 (A) (A) (A) (A) (A) (A) (A) (A) (A) (A) (A) (A)
                 (A) (A) (A) (A) (A) (A) (A) (A) (A) (A) (A) (A)
                 (A) (A) (A) (A) (A) (A) (A) (A) (A) (A) (A) (A)
                 (A) (A) (A) (A) (A) (A) (A) (A) (A) (A) (A) (A)
                 (A) (A) (A) (A) (A) (A) (A) (A) (A) (A) (A) (A)
                 (A) (A) (A) (A) (A) (A) (A) (A) (A) (A) (A) (A)
                 (A) (A) (A) (A) (A) (A) (A) (A) (A) (A) (A) (A)
                 (A) (A) (A) (A) (A) (A) (A) (A) (A) (A) (A) (A)
                 (A) (A) (A) (A) (A) (A) (A) (A) (A) (A) (A) (A)
                 (A) (A) (A) (A) (A) (A) (A) (A) (A) (A) (A) (A)
                 (A) (A) (A) (A) (A) (A) (A) (A) (A) (A) (A) (A)
                 (A) (A) (A) (A) (A) (A) (A) (A) (A) (A) (A) (A)
                 (A) (A) (A) (A) (A) (A) (A) (A) (A) (A) (A) (A)
                 (A) (A) (A) (A) (A) (A) (A) (A) (A) (A) (A) (A)
                 (A) (A) (A) (A) (A) (A) (A) (A) (A) (A) (A) (A)
                 (A) (A) (A) (A) (A) (A) (A) (A) (A) (A) (A) (A)
                 (A) (A) (A) (A) (A) (A) (A) (A) (A) (A) (A) (A)
                 (A) (A) (A) (A) (A) (A) (A) (A) (A) (A) (A) (A)
                 (A) (A) (A) (A) (A) (A) (A) (A) (A) (A) (A) (A)
                 (A) (A) (A) (A) (A) (A) (A) (A) (A) (A) (A) (A)
                 (A) (A) (A) (A) (A) (A) (A) (A) (A) (A) (A) (A)
                 (A) (A) (A) (A) (A) (A) (A) (A) (A) (A) (A) (A)
                 (A) (A) (A) (A) (A) (A) (A) (A) (A) (A) (A) (A)
                 (A) (A) (A) (A) (A) (A) (A) (A) (A) (A) (A) (A)
                 (A) (A) (A) (A) (A) (A) (A) (A) (A) (A) (A) (A)
                 (A) (A) (A) (A) (A) (A) (A) (A) (A) (A) (A) (A)
                 (A) (A) (A) (A) (A) (A) (A) (A) (A) (A) (A) (A)
                 (A) (A) (A) (A) (A) (A) (A) (A) (A) (A) (A) (A)
                 (A) (A) (A) (A) (A) (A) (A) (A) (A) (A) (A) (A)
                 (A) (A) (A) (A) (A) (A) (A) (A) (A) (A) (A) (A)
                 (A) (A) (A) (A) (A) (A) (A) (A) (A) (A) (A) (A)
                 (A) (A) (A) (A) (A) (A) (A) (A) (A) (A) (A) (A)
                 (A) (A) (A) (A) (A) (A) (A) (A) (A) (A) (A) (A)
                 (A) (A) (A) (A) (A) (A) (A) (A) (A) (A) (A) (A)
                 (A) (A) (A) (A) (A) (A) (A) (A) (A) (A) (A) (A)
                 (A) (A) (A) (A) (A) (A) (A) (A) (A) (A) (A) (A)
                 (A) (A) (A) (A) (A) (A) (A) (A) (A) (A) (A) (A)
                 (A) (A) (A) (A) (A) (A) (A) (A) (A) (A) (A) (A)
                 (A) (A) (A) (A) (A) (A) (A) (A) (A) (A) (A) (A)
                 (A) (A) (A) (A) (A) (A) (A) (A) (A) (A) (A) (A)
                 (A) (A) (A) (A) (A) (A) (A) (A) (A) (A) (A) (A)
                 (A) (A) (A) (A) (A) (A) (A) (A) (A) (A) (A) (A)
                 (A) (A) (A) (A) (A) (A) (A) (A) (A) (A) (A) (A)
                 (A) (A) (A) (A) (A) (A) (A) (A) (A) (A) (A) (A)
                 (A) (A) (A) (A) (A) (A) (A) (A) (A) (A) (A) (A)
                 (A) (A) (A) (A) (A) (A) (A) (A) (A) (A) (A) (A)
                 (A) (A) (A) (A) (A) (A) (A) (A) (A) (A) (A) (A)
                 (A) (A) (A) (A) (A) (A) (A) (A) (A) (A) (A) (A)
                 (A) (A) (A) (A) (A) (A) (A) (A) (A) (A) (A) (A)
                 (A) (A) (A) (A) (A) (A) (A) (A) (A) (A) (A) (A)
                 (A) (A) (A) (A) (A) (A) (A) (A) (A) (A) (A) (A)
                 (A) (A) (A) (A) (A) (A) (A) (A) (A) (A) (A) (A)
                 (A) (A) (A) (A) (A) (A) (A) (A) (A) (A) (A) (A)
                 (A) (A) (A) (A) (A) (A) (A) (A) (A) (A) (A) (A)
                 (A) (A) (A) (A) (A) (A) (A) (A) (A) (A) (A) (A)
                 (A) (A) (A) (A) (A) (A) (A) (A) (A) (A) (A) (A)
                 (A) (A) (A) (A) (A) (A) (A) (A) (A) (A) (A) (A)
                 (A) (A) (A) (A) (A) (A) (A) (A) (A) (A) (A) (A)
                 (A) (A) (A) (A) (A) (A) (A) (A) (A) (A) (A) (A)
                 (A) (A) (A) (A) (A) (A) (A) (A) (A) (A) (A) (A)
                 (A) (A) (A) (A) (A) (A) (A) (A) (A) (A) (A) (A)
                 (A) (A) (A) (A) (A) (A) (A) (A) (A) (A) (A) (A)
                 (A) (A) (A) (A) (A) (A) (A) (A) (A) (A) (A) (A)
                 (A) (A) (A) (A) (A) (A) (A) (A) (A) (A) (A) (A)
                 (A) (A) (A) (A) (A) (A) (A) (A) (A) (A) (A) (A)
                 (A) (A) (A) (A) (A) (A) (A) (A) (A) (A) (A) (A)
                 (A) (A) (A) (A) (A) (A) (A) (A) (A) (A) (A) (A)
                 (A) (A) (A) (A) (A) (A) (A) (A) (A) (A) (A) (A)
                 (A) (A) (A) (A) (A) (A) (A) (A) (A) (A) (A) (A)
                 (A) (A) (A) (A) (A) (A) (A) (A) (A) (A) (A) (A)
                 (A) (A) (A) (A) (A) (A) (A) (A) (A) (A) (A) (A)
                 (A) (A) (A) (A) (A) (A) (A) (A) (A) (A) (A) (A)
                 (A) (A) (A) (A) (A) (A) (A) (A) (A) (A) (A) (A)
                 (A) (A) (A) (A) (A) (A) (A) (A) (A) (A) (A) (A)
                 (A) (A) (A) (A) (A) (A) (A) (A) (A) (A) (A) (A)
                 (A) (A) (A) (A) (A) (A) (A) (A) (A) (A) (A) (A)
                 (A) (A) (A) (A) (A) (A) (A) (A) (A) (A) (A) (A)
                 (A) (A) (A) (A) (A) (A) (A) (A) (A) (A) (A) (A)
                 (A) (A) (A) (A) (A) (A) (A) (A) (A) (A) (A) (A)
                 (A) (A) (A) (A) (A) (A) (A) (A) (A) (A) (A) (A)
                 (A) (A) (A) (A) (A) (A) (A) (A) (A) (A) (A) (A)
                 (A) (A) (A) (A) (A) (A) (A) (A) (A) (A) (A) (A)
                 (A) (A) (A) (A) (A) (A) (A) (A) (A) (A) (A) (A)
                 (A) (A) (A) (A) (A) (A) (A) (A) (A) (A) (A) (A)
                 (A) (A) (A) (A) (A) (A) (A) (A) (A) (A) (A) (A)
                 (A) (A) (A) (A) (A) (A) (A) (A) (A) (A) (A) (A)
                 (A) (A) (A) (A) (A) (A) (A) (A) (A) (A) (A) (A)
                 (A) (A) (A) (A) (A) (A) (A) (A) (A) (A) (A) (A)
                 (A) (A) (A) (A) (A) (A) (A) (A) (A) (A) (A) (A)
                 (A) (A) (A) (A) (A) (A) (A) (A) (A) (A) (A) (A)
                 (A) (A) (A) (A) (A) (A) (A) (A) (A) (A) (A) (A)
                 (A) (A) (A) (A) (A) (A) (A) (A) (A) (A) (A) (A)
                 (A) (A) (A) (A) (A) (A) (A) (A) (A) (A) (A) (A)
                 (A) (A) (A) (A) (A) (A) (A) (A) (A) (A) (A) (A)
                 (A) (A) (A) (A) (A) (A) (A) (A) (A) (A) (A) (A)
                 (A) (A) (A) (A) (A) (A) (A) (A) (A) (A) (A) (A)
                 (A) (A) (A) (A) (A) (A) (A) (A) (A) (A) (A) (A)
                 (A) (A) (A) (A) (A) (A) (A) (A) (A) (A) (A) (A)
                 (A) (A) (A) (A) (A) (A) (A) (A) (A) (A) (A) (A)
                 (A) (A) (A) (A) (A) (A) (A) (A) (A) (A) (A) (A)
                 (A) (A) (A) (A) (A) (A) (A) (A) (A) (A) (A) (A)
                 (A) (A) (A) (A) (A) (A) (A) (A) (A) (A) (A) (A)
                 (A) (A) (A) (A) (A) (A) (A) (A) (A) (A) (A) (A)
                 (A) (A) (A) (A) (A) (A) (A) (A) (A) (A) (A) (A)
                 (A) (A) (A) (A) (A) (A) (A) (A) (A) (A) (A) (A)
                 (A) (A) (A) (A) (A) (A) (A) (A) (A) (A) (A) (A)
                 (A) (A) (A) (A) (A) (A) (A) (A) (A) (A) (A) (A)
                 (A) (A) (A) (A) (A) (A) (A) (A) (A) (A) (A) (A)
                 (A) (A) (A) (A) (A) (A) (A) (A) (A) (A) (A) (A)
                 (A) (A) (A) (A) (A) (A) (A) (A) (A) (A) (A) (A)
                 (A) (A) (A) (A) (A) (A) (A) (A) (A) (A) (A) (A)
                 (A) (A) (A) (A) (A) (A) (A) (A)
 The electronic state is 6-A.
 Alpha  occ. eigenvalues -- -256.58992 -89.15023 -30.41434 -26.23276 -26.23057
 Alpha  occ. eigenvalues --  -26.22996 -19.34491 -19.31257 -19.24582 -19.24200
 Alpha  occ. eigenvalues --  -14.52264 -14.50901 -14.50835 -14.50156 -10.44994
 Alpha  occ. eigenvalues --  -10.42739 -10.41419 -10.38491 -10.38250 -10.38136
 Alpha  occ. eigenvalues --  -10.37172 -10.37090 -10.37084 -10.36944 -10.36760
 Alpha  occ. eigenvalues --  -10.34907 -10.34797 -10.34790 -10.34628 -10.34477
 Alpha  occ. eigenvalues --  -10.34272 -10.34233 -10.33969 -10.33830 -10.33790
 Alpha  occ. eigenvalues --  -10.33704 -10.33587 -10.33492 -10.33401 -10.33165
 Alpha  occ. eigenvalues --  -10.32833 -10.32486 -10.32459 -10.31882 -10.31029
 Alpha  occ. eigenvalues --  -10.30913 -10.30166 -10.29696 -10.29553  -8.13462
 Alpha  occ. eigenvalues --   -6.07141  -6.06856  -6.06402  -3.83710  -2.59879
 Alpha  occ. eigenvalues --   -2.59815  -2.59570  -1.28005  -1.25268  -1.13233
 Alpha  occ. eigenvalues --   -1.11799  -1.10917  -1.10591  -1.10079  -1.09063
 Alpha  occ. eigenvalues --   -0.96705  -0.95934  -0.95303  -0.94939  -0.94339
 Alpha  occ. eigenvalues --   -0.94069  -0.93811  -0.93442  -0.92065  -0.90079
 Alpha  occ. eigenvalues --   -0.89186  -0.88565  -0.88180  -0.87986  -0.85539
 Alpha  occ. eigenvalues --   -0.83753  -0.82975  -0.82551  -0.82093  -0.80905
 Alpha  occ. eigenvalues --   -0.79682  -0.79231  -0.78184  -0.77921  -0.75468
 Alpha  occ. eigenvalues --   -0.72881  -0.72166  -0.72002  -0.70897  -0.69161
 Alpha  occ. eigenvalues --   -0.67996  -0.67227  -0.66358  -0.65838  -0.64450
 Alpha  occ. eigenvalues --   -0.64273  -0.63533  -0.63470  -0.62134  -0.61685
 Alpha  occ. eigenvalues --   -0.61400  -0.60725  -0.60489  -0.60138  -0.60038
 Alpha  occ. eigenvalues --   -0.59344  -0.59025  -0.58840  -0.58362  -0.58275
 Alpha  occ. eigenvalues --   -0.58084  -0.57988  -0.57341  -0.57130  -0.56711
 Alpha  occ. eigenvalues --   -0.56515  -0.56281  -0.56133  -0.55838  -0.55455
 Alpha  occ. eigenvalues --   -0.55262  -0.55043  -0.54593  -0.54267  -0.53802
 Alpha  occ. eigenvalues --   -0.53534  -0.53011  -0.52909  -0.52721  -0.52455
 Alpha  occ. eigenvalues --   -0.52057  -0.51718  -0.51267  -0.51108  -0.50748
 Alpha  occ. eigenvalues --   -0.50411  -0.50158  -0.49956  -0.49715  -0.49290
 Alpha  occ. eigenvalues --   -0.48933  -0.48592  -0.48454  -0.47395  -0.47173
 Alpha  occ. eigenvalues --   -0.46649  -0.46310  -0.45658  -0.44948  -0.44800
 Alpha  occ. eigenvalues --   -0.44543  -0.44072  -0.42026  -0.41921  -0.41161
 Alpha  occ. eigenvalues --   -0.40647  -0.40635  -0.39623  -0.39268  -0.38981
 Alpha  occ. eigenvalues --   -0.38440  -0.37888  -0.37506  -0.36532  -0.35879
 Alpha  occ. eigenvalues --   -0.34811  -0.34594  -0.34395  -0.33189  -0.32320
 Alpha  occ. eigenvalues --   -0.31205
 Alpha virt. eigenvalues --   -0.22653  -0.20509  -0.19743  -0.14831  -0.12623
 Alpha virt. eigenvalues --   -0.10807  -0.08164  -0.07448  -0.07058  -0.06588
 Alpha virt. eigenvalues --   -0.05731  -0.05322  -0.05204  -0.04529  -0.04251
 Alpha virt. eigenvalues --   -0.04068  -0.03293  -0.03070  -0.02468  -0.02119
 Alpha virt. eigenvalues --   -0.01909  -0.01572  -0.01406  -0.01250  -0.01023
 Alpha virt. eigenvalues --   -0.00709  -0.00461  -0.00440  -0.00024   0.00110
 Alpha virt. eigenvalues --    0.00376   0.00659   0.01414   0.01538   0.01555
 Alpha virt. eigenvalues --    0.01857   0.02234   0.02720   0.02963   0.03141
 Alpha virt. eigenvalues --    0.03432   0.03521   0.03865   0.04245   0.04354
 Alpha virt. eigenvalues --    0.04527   0.04945   0.05102   0.05192   0.05320
 Alpha virt. eigenvalues --    0.05472   0.05824   0.06070   0.06133   0.06487
 Alpha virt. eigenvalues --    0.06586   0.06947   0.06969   0.07083   0.07588
 Alpha virt. eigenvalues --    0.07649   0.07886   0.08050   0.08580   0.08653
 Alpha virt. eigenvalues --    0.09010   0.09152   0.09781   0.09815   0.10214
 Alpha virt. eigenvalues --    0.10313   0.10772   0.11286   0.11324   0.11649
 Alpha virt. eigenvalues --    0.11748   0.11999   0.12152   0.12405   0.12552
 Alpha virt. eigenvalues --    0.12771   0.12934   0.13396   0.13926   0.14105
 Alpha virt. eigenvalues --    0.14288   0.14479   0.14666   0.14905   0.15190
 Alpha virt. eigenvalues --    0.15456   0.15511   0.15731   0.15946   0.16459
 Alpha virt. eigenvalues --    0.16519   0.16698   0.17128   0.17217   0.17590
 Alpha virt. eigenvalues --    0.17675   0.17903   0.18382   0.18492   0.18673
 Alpha virt. eigenvalues --    0.19109   0.19289   0.19454   0.19603   0.19957
 Alpha virt. eigenvalues --    0.20159   0.20240   0.20664   0.20755   0.21015
 Alpha virt. eigenvalues --    0.21357   0.21547   0.21855   0.22067   0.22387
 Alpha virt. eigenvalues --    0.22561   0.22707   0.23054   0.23301   0.23466
 Alpha virt. eigenvalues --    0.23964   0.24114   0.24288   0.24659   0.24889
 Alpha virt. eigenvalues --    0.25169   0.25328   0.25410   0.25703   0.26138
 Alpha virt. eigenvalues --    0.26221   0.26684   0.27049   0.27242   0.27560
 Alpha virt. eigenvalues --    0.27865   0.27873   0.27944   0.28348   0.28477
 Alpha virt. eigenvalues --    0.28779   0.29041   0.29383   0.29729   0.29873
 Alpha virt. eigenvalues --    0.30028   0.30097   0.30430   0.30756   0.30874
 Alpha virt. eigenvalues --    0.31244   0.31638   0.31845   0.32044   0.32256
 Alpha virt. eigenvalues --    0.32307   0.32786   0.33077   0.33158   0.33210
 Alpha virt. eigenvalues --    0.33466   0.33545   0.33733   0.34010   0.34144
 Alpha virt. eigenvalues --    0.34379   0.34502   0.34867   0.35200   0.35267
 Alpha virt. eigenvalues --    0.35652   0.35685   0.35839   0.36006   0.36196
 Alpha virt. eigenvalues --    0.36740   0.36812   0.37098   0.37232   0.37499
 Alpha virt. eigenvalues --    0.37580   0.38039   0.38209   0.38442   0.38589
 Alpha virt. eigenvalues --    0.39007   0.39205   0.39355   0.39588   0.39881
 Alpha virt. eigenvalues --    0.39974   0.40237   0.40288   0.40402   0.40605
 Alpha virt. eigenvalues --    0.40891   0.41125   0.41230   0.41404   0.41661
 Alpha virt. eigenvalues --    0.41794   0.42158   0.42247   0.42356   0.42609
 Alpha virt. eigenvalues --    0.42791   0.43093   0.43337   0.43641   0.44129
 Alpha virt. eigenvalues --    0.44166   0.44405   0.44561   0.44759   0.44952
 Alpha virt. eigenvalues --    0.45294   0.45392   0.45440   0.45812   0.46193
 Alpha virt. eigenvalues --    0.46513   0.46763   0.46901   0.47289   0.47670
 Alpha virt. eigenvalues --    0.47833   0.48010   0.48195   0.48517   0.48537
 Alpha virt. eigenvalues --    0.49134   0.49283   0.49439   0.49738   0.49904
 Alpha virt. eigenvalues --    0.50304   0.50550   0.50844   0.51061   0.51282
 Alpha virt. eigenvalues --    0.51462   0.51751   0.51970   0.52330   0.52437
 Alpha virt. eigenvalues --    0.52829   0.53105   0.53270   0.53685   0.53891
 Alpha virt. eigenvalues --    0.54197   0.54510   0.54862   0.55005   0.55301
 Alpha virt. eigenvalues --    0.55550   0.55909   0.55931   0.56322   0.56641
 Alpha virt. eigenvalues --    0.56867   0.57048   0.57172   0.57554   0.57732
 Alpha virt. eigenvalues --    0.57890   0.58466   0.58647   0.59027   0.59306
 Alpha virt. eigenvalues --    0.59427   0.59692   0.60047   0.60531   0.60914
 Alpha virt. eigenvalues --    0.61192   0.61373   0.61803   0.61928   0.62398
 Alpha virt. eigenvalues --    0.62904   0.63258   0.63342   0.64057   0.64290
 Alpha virt. eigenvalues --    0.64667   0.65121   0.65327   0.65539   0.65930
 Alpha virt. eigenvalues --    0.66083   0.66469   0.66792   0.67109   0.67552
 Alpha virt. eigenvalues --    0.67658   0.68029   0.68476   0.68632   0.69356
 Alpha virt. eigenvalues --    0.69541   0.69778   0.70015   0.70603   0.71111
 Alpha virt. eigenvalues --    0.71159   0.71447   0.72039   0.72493   0.72733
 Alpha virt. eigenvalues --    0.72972   0.73166   0.73642   0.74226   0.74675
 Alpha virt. eigenvalues --    0.74744   0.75082   0.75365   0.75754   0.76008
 Alpha virt. eigenvalues --    0.76261   0.77306   0.77629   0.77756   0.78006
 Alpha virt. eigenvalues --    0.78123   0.78372   0.78804   0.78991   0.78998
 Alpha virt. eigenvalues --    0.79771   0.80050   0.80459   0.80756   0.80828
 Alpha virt. eigenvalues --    0.81253   0.81803   0.81839   0.82175   0.82491
 Alpha virt. eigenvalues --    0.82508   0.82873   0.83138   0.83506   0.83882
 Alpha virt. eigenvalues --    0.84447   0.84598   0.84756   0.85018   0.85538
 Alpha virt. eigenvalues --    0.85832   0.86285   0.86718   0.87063   0.87186
 Alpha virt. eigenvalues --    0.87893   0.88191   0.88387   0.88669   0.89053
 Alpha virt. eigenvalues --    0.89232   0.89414   0.89851   0.90035   0.90431
 Alpha virt. eigenvalues --    0.90797   0.91276   0.91486   0.91901   0.92168
 Alpha virt. eigenvalues --    0.92330   0.92731   0.92806   0.93102   0.93254
 Alpha virt. eigenvalues --    0.93549   0.94056   0.94294   0.94494   0.94597
 Alpha virt. eigenvalues --    0.95341   0.95747   0.95876   0.96530   0.96798
 Alpha virt. eigenvalues --    0.97195   0.97836   0.97945   0.98611   0.99340
 Alpha virt. eigenvalues --    0.99491   0.99661   1.00052   1.00420   1.00647
 Alpha virt. eigenvalues --    1.01483   1.01565   1.01653   1.01855   1.02666
 Alpha virt. eigenvalues --    1.02882   1.03703   1.03760   1.04234   1.04920
 Alpha virt. eigenvalues --    1.05514   1.05723   1.06806   1.07057   1.07209
 Alpha virt. eigenvalues --    1.07614   1.07897   1.08069   1.08795   1.09157
 Alpha virt. eigenvalues --    1.09562   1.10047   1.10149   1.10836   1.10971
 Alpha virt. eigenvalues --    1.11179   1.11607   1.11921   1.12370   1.12818
 Alpha virt. eigenvalues --    1.13576   1.13686   1.14115   1.14162   1.14664
 Alpha virt. eigenvalues --    1.15249   1.15420   1.15511   1.16389   1.17035
 Alpha virt. eigenvalues --    1.17184   1.17754   1.18278   1.18899   1.19139
 Alpha virt. eigenvalues --    1.19523   1.19910   1.20498   1.20587   1.20875
 Alpha virt. eigenvalues --    1.21686   1.22072   1.23154   1.23465   1.23924
 Alpha virt. eigenvalues --    1.24254   1.24359   1.24757   1.25437   1.25715
 Alpha virt. eigenvalues --    1.26176   1.26363   1.26755   1.27330   1.27933
 Alpha virt. eigenvalues --    1.28321   1.28906   1.29062   1.29755   1.30333
 Alpha virt. eigenvalues --    1.30798   1.31128   1.31712   1.31991   1.32148
 Alpha virt. eigenvalues --    1.32586   1.33006   1.33327   1.34104   1.34467
 Alpha virt. eigenvalues --    1.34938   1.35100   1.35407   1.35504   1.36022
 Alpha virt. eigenvalues --    1.36521   1.36929   1.37043   1.37370   1.38149
 Alpha virt. eigenvalues --    1.38684   1.39006   1.39241   1.39473   1.40170
 Alpha virt. eigenvalues --    1.40310   1.40872   1.41104   1.41446   1.42393
 Alpha virt. eigenvalues --    1.42660   1.42772   1.42879   1.43318   1.43578
 Alpha virt. eigenvalues --    1.43739   1.44490   1.44643   1.44821   1.45353
 Alpha virt. eigenvalues --    1.45687   1.46052   1.46164   1.46664   1.47321
 Alpha virt. eigenvalues --    1.47509   1.47836   1.48198   1.48273   1.48713
 Alpha virt. eigenvalues --    1.48998   1.49137   1.49496   1.49675   1.49970
 Alpha virt. eigenvalues --    1.50243   1.50576   1.50963   1.51326   1.51536
 Alpha virt. eigenvalues --    1.52038   1.52218   1.52382   1.52736   1.53067
 Alpha virt. eigenvalues --    1.53461   1.53742   1.53937   1.54365   1.54471
 Alpha virt. eigenvalues --    1.54776   1.55161   1.55319   1.55477   1.55817
 Alpha virt. eigenvalues --    1.56376   1.56563   1.56879   1.57120   1.57390
 Alpha virt. eigenvalues --    1.57610   1.58104   1.58494   1.58969   1.59202
 Alpha virt. eigenvalues --    1.59679   1.59865   1.60150   1.60567   1.60751
 Alpha virt. eigenvalues --    1.60985   1.61520   1.61779   1.62062   1.62500
 Alpha virt. eigenvalues --    1.63091   1.63644   1.63838   1.64072   1.64263
 Alpha virt. eigenvalues --    1.64760   1.65221   1.65838   1.66213   1.66594
 Alpha virt. eigenvalues --    1.66745   1.67249   1.67954   1.68270   1.68985
 Alpha virt. eigenvalues --    1.69153   1.69566   1.70065   1.70366   1.70658
 Alpha virt. eigenvalues --    1.71019   1.71207   1.71556   1.71837   1.72736
 Alpha virt. eigenvalues --    1.73075   1.73907   1.74055   1.74642   1.74881
 Alpha virt. eigenvalues --    1.75394   1.75987   1.76235   1.76528   1.77148
 Alpha virt. eigenvalues --    1.77464   1.78088   1.78255   1.78502   1.78810
 Alpha virt. eigenvalues --    1.79808   1.79950   1.80535   1.80972   1.81202
 Alpha virt. eigenvalues --    1.81783   1.82274   1.82333   1.82491   1.83125
 Alpha virt. eigenvalues --    1.83340   1.83649   1.84458   1.84663   1.85050
 Alpha virt. eigenvalues --    1.85354   1.85683   1.85835   1.86387   1.86583
 Alpha virt. eigenvalues --    1.86949   1.87787   1.87933   1.88332   1.88400
 Alpha virt. eigenvalues --    1.88907   1.89492   1.89652   1.89894   1.90198
 Alpha virt. eigenvalues --    1.90441   1.90886   1.91120   1.91343   1.91888
 Alpha virt. eigenvalues --    1.91934   1.92786   1.93211   1.93542   1.94077
 Alpha virt. eigenvalues --    1.94635   1.95022   1.95376   1.95804   1.95988
 Alpha virt. eigenvalues --    1.96302   1.96805   1.97162   1.97655   1.97820
 Alpha virt. eigenvalues --    1.97885   1.98548   1.98660   1.99791   2.00221
 Alpha virt. eigenvalues --    2.00421   2.00855   2.01184   2.01589   2.02139
 Alpha virt. eigenvalues --    2.02250   2.03176   2.03589   2.03945   2.04376
 Alpha virt. eigenvalues --    2.04721   2.04951   2.05647   2.05948   2.06519
 Alpha virt. eigenvalues --    2.06950   2.07215   2.07608   2.08267   2.08623
 Alpha virt. eigenvalues --    2.08733   2.09682   2.10178   2.10647   2.10946
 Alpha virt. eigenvalues --    2.11190   2.11815   2.11945   2.12386   2.13044
 Alpha virt. eigenvalues --    2.13298   2.14266   2.14664   2.14792   2.15107
 Alpha virt. eigenvalues --    2.15681   2.16231   2.16434   2.16734   2.17157
 Alpha virt. eigenvalues --    2.17262   2.17566   2.18217   2.18430   2.18889
 Alpha virt. eigenvalues --    2.19371   2.19603   2.20309   2.20600   2.21701
 Alpha virt. eigenvalues --    2.21755   2.22126   2.22762   2.23330   2.23493
 Alpha virt. eigenvalues --    2.23981   2.24501   2.24722   2.24800   2.25385
 Alpha virt. eigenvalues --    2.26579   2.27092   2.27231   2.27738   2.28072
 Alpha virt. eigenvalues --    2.28509   2.28686   2.29267   2.29648   2.29961
 Alpha virt. eigenvalues --    2.30313   2.30498   2.30774   2.31180   2.31564
 Alpha virt. eigenvalues --    2.31770   2.32303   2.32455   2.32723   2.33358
 Alpha virt. eigenvalues --    2.33562   2.34293   2.34710   2.35033   2.35073
 Alpha virt. eigenvalues --    2.36189   2.36391   2.36658   2.37237   2.37669
 Alpha virt. eigenvalues --    2.38424   2.38679   2.39088   2.39786   2.40378
 Alpha virt. eigenvalues --    2.40600   2.41038   2.42049   2.42662   2.42925
 Alpha virt. eigenvalues --    2.43001   2.43475   2.43578   2.44320   2.44632
 Alpha virt. eigenvalues --    2.45120   2.45201   2.45555   2.46179   2.46662
 Alpha virt. eigenvalues --    2.46841   2.47137   2.47677   2.48053   2.48231
 Alpha virt. eigenvalues --    2.48680   2.49060   2.49268   2.49667   2.50290
 Alpha virt. eigenvalues --    2.50722   2.50834   2.51137   2.51789   2.51966
 Alpha virt. eigenvalues --    2.52511   2.53021   2.53176   2.53895   2.54001
 Alpha virt. eigenvalues --    2.54737   2.55475   2.55855   2.56187   2.56243
 Alpha virt. eigenvalues --    2.56515   2.57050   2.57652   2.58301   2.58654
 Alpha virt. eigenvalues --    2.58869   2.59379   2.59744   2.60133   2.60376
 Alpha virt. eigenvalues --    2.60781   2.60829   2.61460   2.61580   2.62481
 Alpha virt. eigenvalues --    2.62585   2.62769   2.63182   2.63359   2.63430
 Alpha virt. eigenvalues --    2.64170   2.64648   2.64908   2.65151   2.66054
 Alpha virt. eigenvalues --    2.66341   2.67102   2.67248   2.67439   2.67571
 Alpha virt. eigenvalues --    2.68132   2.68612   2.69498   2.69769   2.70058
 Alpha virt. eigenvalues --    2.70289   2.70347   2.71054   2.71470   2.71668
 Alpha virt. eigenvalues --    2.71914   2.72566   2.72766   2.73170   2.73403
 Alpha virt. eigenvalues --    2.73857   2.74405   2.74739   2.75560   2.76147
 Alpha virt. eigenvalues --    2.76482   2.76903   2.77361   2.77765   2.77783
 Alpha virt. eigenvalues --    2.78483   2.79070   2.79188   2.79915   2.80202
 Alpha virt. eigenvalues --    2.80526   2.80729   2.81066   2.81222   2.81466
 Alpha virt. eigenvalues --    2.82165   2.83313   2.83952   2.84051   2.84114
 Alpha virt. eigenvalues --    2.84579   2.85083   2.85380   2.85973   2.86164
 Alpha virt. eigenvalues --    2.86332   2.86807   2.87185   2.87532   2.87941
 Alpha virt. eigenvalues --    2.88503   2.88785   2.89062   2.89406   2.89553
 Alpha virt. eigenvalues --    2.90458   2.90628   2.91078   2.91768   2.92049
 Alpha virt. eigenvalues --    2.92221   2.92819   2.93121   2.93317   2.93663
 Alpha virt. eigenvalues --    2.93923   2.94504   2.94533   2.94923   2.95119
 Alpha virt. eigenvalues --    2.95393   2.96199   2.96288   2.96585   2.97019
 Alpha virt. eigenvalues --    2.97172   2.97305   2.97621   2.97979   2.98299
 Alpha virt. eigenvalues --    2.98556   2.99187   2.99259   2.99624   2.99760
 Alpha virt. eigenvalues --    3.00405   3.00600   3.00964   3.01248   3.01454
 Alpha virt. eigenvalues --    3.01623   3.01915   3.02473   3.02853   3.02932
 Alpha virt. eigenvalues --    3.03300   3.03340   3.03504   3.03968   3.04504
 Alpha virt. eigenvalues --    3.04883   3.05494   3.05763   3.06269   3.06368
 Alpha virt. eigenvalues --    3.06515   3.07019   3.07150   3.07607   3.07912
 Alpha virt. eigenvalues --    3.08323   3.08477   3.09033   3.09322   3.09635
 Alpha virt. eigenvalues --    3.10203   3.10414   3.10690   3.10984   3.11234
 Alpha virt. eigenvalues --    3.11530   3.11852   3.12294   3.12465   3.12746
 Alpha virt. eigenvalues --    3.13052   3.13138   3.13303   3.13656   3.14007
 Alpha virt. eigenvalues --    3.14232   3.14489   3.14808   3.15256   3.15768
 Alpha virt. eigenvalues --    3.15959   3.16284   3.16774   3.16898   3.17108
 Alpha virt. eigenvalues --    3.17619   3.17881   3.18322   3.18653   3.18940
 Alpha virt. eigenvalues --    3.19333   3.19427   3.19706   3.20208   3.20580
 Alpha virt. eigenvalues --    3.20815   3.21078   3.21232   3.21615   3.21884
 Alpha virt. eigenvalues --    3.22061   3.22391   3.22990   3.23201   3.23439
 Alpha virt. eigenvalues --    3.23545   3.24044   3.24559   3.25019   3.25141
 Alpha virt. eigenvalues --    3.25339   3.25664   3.26118   3.26387   3.26802
 Alpha virt. eigenvalues --    3.26931   3.27520   3.27670   3.27929   3.28354
 Alpha virt. eigenvalues --    3.28466   3.28748   3.29039   3.29501   3.29777
 Alpha virt. eigenvalues --    3.30062   3.30175   3.30283   3.30478   3.30747
 Alpha virt. eigenvalues --    3.30825   3.31758   3.31815   3.32234   3.32547
 Alpha virt. eigenvalues --    3.32693   3.33011   3.33479   3.33815   3.34161
 Alpha virt. eigenvalues --    3.34656   3.35138   3.35308   3.35698   3.36199
 Alpha virt. eigenvalues --    3.36394   3.36968   3.37172   3.37826   3.38206
 Alpha virt. eigenvalues --    3.38478   3.38966   3.39240   3.40002   3.40332
 Alpha virt. eigenvalues --    3.40415   3.41118   3.41588   3.41833   3.42002
 Alpha virt. eigenvalues --    3.42175   3.42928   3.43120   3.43373   3.44000
 Alpha virt. eigenvalues --    3.44231   3.44686   3.45244   3.45412   3.45591
 Alpha virt. eigenvalues --    3.46009   3.46202   3.46721   3.46931   3.47229
 Alpha virt. eigenvalues --    3.47865   3.48128   3.48372   3.48658   3.48813
 Alpha virt. eigenvalues --    3.49545   3.50164   3.50828   3.51317   3.51474
 Alpha virt. eigenvalues --    3.51714   3.52208   3.52341   3.53180   3.53408
 Alpha virt. eigenvalues --    3.53999   3.54244   3.54580   3.54918   3.55403
 Alpha virt. eigenvalues --    3.55947   3.56543   3.56939   3.57049   3.57856
 Alpha virt. eigenvalues --    3.57996   3.58305   3.58390   3.59095   3.59340
 Alpha virt. eigenvalues --    3.59835   3.60400   3.61414   3.61504   3.61636
 Alpha virt. eigenvalues --    3.62418   3.62765   3.63372   3.63998   3.64316
 Alpha virt. eigenvalues --    3.64843   3.65673   3.65883   3.66436   3.67012
 Alpha virt. eigenvalues --    3.67068   3.67938   3.68359   3.68587   3.68971
 Alpha virt. eigenvalues --    3.69604   3.70241   3.70996   3.71382   3.71954
 Alpha virt. eigenvalues --    3.72812   3.73134   3.73337   3.73575   3.73813
 Alpha virt. eigenvalues --    3.73944   3.74765   3.76060   3.76271   3.76558
 Alpha virt. eigenvalues --    3.76808   3.77622   3.78092   3.78855   3.79249
 Alpha virt. eigenvalues --    3.80028   3.80817   3.80996   3.81758   3.82578
 Alpha virt. eigenvalues --    3.82818   3.82934   3.84026   3.84648   3.85480
 Alpha virt. eigenvalues --    3.86028   3.86378   3.86976   3.87509   3.87878
 Alpha virt. eigenvalues --    3.88275   3.89128   3.89949   3.90136   3.90552
 Alpha virt. eigenvalues --    3.90832   3.91317   3.92141   3.92608   3.93671
 Alpha virt. eigenvalues --    3.94206   3.94732   3.95108   3.95505   3.95764
 Alpha virt. eigenvalues --    3.96293   3.97128   3.97391   3.98192   3.98483
 Alpha virt. eigenvalues --    3.99255   3.99412   3.99974   4.00064   4.01053
 Alpha virt. eigenvalues --    4.01670   4.01804   4.02862   4.03462   4.04084
 Alpha virt. eigenvalues --    4.04426   4.05492   4.05767   4.06523   4.06993
 Alpha virt. eigenvalues --    4.07149   4.08423   4.08737   4.09117   4.09477
 Alpha virt. eigenvalues --    4.10124   4.10605   4.11261   4.11438   4.12697
 Alpha virt. eigenvalues --    4.13298   4.13769   4.14351   4.15207   4.15572
 Alpha virt. eigenvalues --    4.16187   4.16418   4.17121   4.17689   4.18117
 Alpha virt. eigenvalues --    4.18435   4.19103   4.19616   4.20985   4.21337
 Alpha virt. eigenvalues --    4.22174   4.22796   4.23342   4.23915   4.24489
 Alpha virt. eigenvalues --    4.24945   4.25625   4.26860   4.27491   4.28273
 Alpha virt. eigenvalues --    4.28705   4.29028   4.29357   4.29764   4.30832
 Alpha virt. eigenvalues --    4.31497   4.32284   4.32756   4.33363   4.33944
 Alpha virt. eigenvalues --    4.34332   4.35843   4.36260   4.36826   4.37425
 Alpha virt. eigenvalues --    4.38488   4.39235   4.39348   4.39677   4.40228
 Alpha virt. eigenvalues --    4.40871   4.41664   4.42751   4.44602   4.45701
 Alpha virt. eigenvalues --    4.45799   4.46236   4.47421   4.48422   4.49058
 Alpha virt. eigenvalues --    4.49510   4.50060   4.50447   4.51597   4.52493
 Alpha virt. eigenvalues --    4.53018   4.54266   4.54505   4.54782   4.55621
 Alpha virt. eigenvalues --    4.56932   4.57009   4.58083   4.58220   4.59118
 Alpha virt. eigenvalues --    4.59243   4.60159   4.61388   4.62932   4.63807
 Alpha virt. eigenvalues --    4.64043   4.65081   4.66570   4.67366   4.68190
 Alpha virt. eigenvalues --    4.69163   4.69711   4.69779   4.71657   4.72822
 Alpha virt. eigenvalues --    4.73397   4.73532   4.74610   4.74684   4.76034
 Alpha virt. eigenvalues --    4.76417   4.76987   4.78321   4.80240   4.81177
 Alpha virt. eigenvalues --    4.81212   4.81820   4.82570   4.83001   4.83928
 Alpha virt. eigenvalues --    4.84115   4.85084   4.86148   4.86901   4.87919
 Alpha virt. eigenvalues --    4.88663   4.89342   4.89669   4.91298   4.91439
 Alpha virt. eigenvalues --    4.91976   4.92742   4.92925   4.94392   4.97710
 Alpha virt. eigenvalues --    4.98677   5.00270   5.01179   5.02011   5.02929
 Alpha virt. eigenvalues --    5.03309   5.03393   5.04453   5.06151   5.06919
 Alpha virt. eigenvalues --    5.07133   5.08612   5.10137   5.10328   5.10792
 Alpha virt. eigenvalues --    5.10969   5.12219   5.13474   5.15047   5.15234
 Alpha virt. eigenvalues --    5.18135   5.18720   5.21953   5.22472   5.23694
 Alpha virt. eigenvalues --    5.24369   5.25102   5.25285   5.26088   5.26933
 Alpha virt. eigenvalues --    5.27695   5.31513   5.32809   5.33381   5.34622
 Alpha virt. eigenvalues --    5.35947   5.36020   5.37452   5.39183   5.39563
 Alpha virt. eigenvalues --    5.40797   5.41366   5.44382   5.44737   5.46454
 Alpha virt. eigenvalues --    5.47347   5.49973   5.52037   5.52813   5.54685
 Alpha virt. eigenvalues --    5.54968   5.55415   5.57315   5.58234   5.59907
 Alpha virt. eigenvalues --    5.60768   5.61009   5.62141   5.63660   5.66393
 Alpha virt. eigenvalues --    5.70556   5.72419   5.78976   5.80455   5.85899
 Alpha virt. eigenvalues --    5.86667   5.87970   5.89813   5.90350   5.92281
 Alpha virt. eigenvalues --    5.92885   5.94285   5.95894   5.96340   6.00268
 Alpha virt. eigenvalues --    6.05643   6.07971   6.09194   6.17089   6.17251
 Alpha virt. eigenvalues --    6.18654   6.19150   6.20500   6.27395   6.27885
 Alpha virt. eigenvalues --    6.29253   6.32921   6.33646   6.34816   6.40742
 Alpha virt. eigenvalues --    6.44198   6.46598   6.60843   6.65549   6.67777
 Alpha virt. eigenvalues --    6.73032   6.77609   6.77836   6.78180   6.82488
 Alpha virt. eigenvalues --    6.88339   6.94124   7.00328   7.04523   7.11146
 Alpha virt. eigenvalues --    7.13794   7.29039   8.47683   8.85159   8.97642
 Alpha virt. eigenvalues --    9.31563  19.22998  22.21663  22.23196  22.23980
 Alpha virt. eigenvalues --   22.47425  22.48543  22.49730  22.50074  22.52445
 Alpha virt. eigenvalues --   22.58091  22.61689  22.65528  22.67572  22.71739
 Alpha virt. eigenvalues --   22.76417  22.78213  22.79640  22.82132  22.84554
 Alpha virt. eigenvalues --   22.90393  22.93236  23.01761  23.12167  23.13518
 Alpha virt. eigenvalues --   23.25284  23.28604  23.28969  23.38414  23.43098
 Alpha virt. eigenvalues --   23.46031  23.47892  23.49557  23.61490  23.63213
 Alpha virt. eigenvalues --   23.67871  23.71440  32.73859  32.77413  32.80133
 Alpha virt. eigenvalues --   32.87458  43.84214  43.85453  43.88943  44.05672
  Beta  occ. eigenvalues -- -256.58840 -89.14872 -30.31922 -26.15392 -26.14992
  Beta  occ. eigenvalues --  -26.14958 -19.34490 -19.31257 -19.24580 -19.24198
  Beta  occ. eigenvalues --  -14.51949 -14.50599 -14.50457 -14.49841 -10.44993
  Beta  occ. eigenvalues --  -10.42738 -10.41451 -10.38469 -10.38246 -10.38117
  Beta  occ. eigenvalues --  -10.37160 -10.37082 -10.37073 -10.36938 -10.36756
  Beta  occ. eigenvalues --  -10.34863 -10.34789 -10.34750 -10.34612 -10.34456
  Beta  occ. eigenvalues --  -10.34267 -10.34194 -10.33936 -10.33792 -10.33790
  Beta  occ. eigenvalues --  -10.33679 -10.33542 -10.33454 -10.33433 -10.33174
  Beta  occ. eigenvalues --  -10.32830 -10.32483 -10.32457 -10.31881 -10.31028
  Beta  occ. eigenvalues --  -10.30912 -10.30165 -10.29677 -10.29505  -8.13316
  Beta  occ. eigenvalues --   -6.07044  -6.06422  -6.06283  -3.61014  -2.36020
  Beta  occ. eigenvalues --   -2.35136  -2.34936  -1.28004  -1.25267  -1.12734
  Beta  occ. eigenvalues --   -1.11434  -1.10914  -1.10192  -1.09641  -1.09060
  Beta  occ. eigenvalues --   -0.96632  -0.95744  -0.94982  -0.94754  -0.94184
  Beta  occ. eigenvalues --   -0.93991  -0.93678  -0.93283  -0.91993  -0.89970
  Beta  occ. eigenvalues --   -0.89118  -0.88487  -0.88116  -0.87912  -0.85422
  Beta  occ. eigenvalues --   -0.83651  -0.82837  -0.82197  -0.81945  -0.80784
  Beta  occ. eigenvalues --   -0.79561  -0.79116  -0.78081  -0.77829  -0.75465
  Beta  occ. eigenvalues --   -0.72685  -0.71980  -0.71559  -0.70763  -0.68892
  Beta  occ. eigenvalues --   -0.67578  -0.66917  -0.65817  -0.65137  -0.64055
  Beta  occ. eigenvalues --   -0.63449  -0.63260  -0.61932  -0.61549  -0.60964
  Beta  occ. eigenvalues --   -0.60439  -0.60331  -0.60077  -0.59241  -0.58924
  Beta  occ. eigenvalues --   -0.58301  -0.58250  -0.57470  -0.57184  -0.56996
  Beta  occ. eigenvalues --   -0.56599  -0.56435  -0.56207  -0.56074  -0.55489
  Beta  occ. eigenvalues --   -0.55223  -0.55070  -0.54703  -0.54358  -0.53951
  Beta  occ. eigenvalues --   -0.53638  -0.53255  -0.53059  -0.52872  -0.52667
  Beta  occ. eigenvalues --   -0.52194  -0.51945  -0.51517  -0.51264  -0.50701
  Beta  occ. eigenvalues --   -0.50446  -0.50210  -0.50054  -0.49743  -0.49360
  Beta  occ. eigenvalues --   -0.49077  -0.48842  -0.48463  -0.48248  -0.47089
  Beta  occ. eigenvalues --   -0.46894  -0.46341  -0.45747  -0.45279  -0.44739
  Beta  occ. eigenvalues --   -0.44160  -0.44149  -0.43868  -0.41998  -0.41836
  Beta  occ. eigenvalues --   -0.41781  -0.40842  -0.40518  -0.39619  -0.39493
  Beta  occ. eigenvalues --   -0.39165  -0.38448  -0.38278  -0.37257  -0.36400
  Beta  occ. eigenvalues --   -0.34901  -0.34636  -0.34440  -0.33116  -0.32253
  Beta  occ. eigenvalues --   -0.31139
  Beta virt. eigenvalues --   -0.23804  -0.23480  -0.23395  -0.21804  -0.21092
  Beta virt. eigenvalues --   -0.19260  -0.18676  -0.14620  -0.14246  -0.12436
  Beta virt. eigenvalues --   -0.10655  -0.07839  -0.07309  -0.06804  -0.06474
  Beta virt. eigenvalues --   -0.05417  -0.05232  -0.04625  -0.04321  -0.03967
  Beta virt. eigenvalues --   -0.03651  -0.03241  -0.02871  -0.02281  -0.01967
  Beta virt. eigenvalues --   -0.01571  -0.01465  -0.01267  -0.01160  -0.00864
  Beta virt. eigenvalues --   -0.00638  -0.00351  -0.00272   0.00057   0.00247
  Beta virt. eigenvalues --    0.00611   0.00792   0.01517   0.01617   0.01689
  Beta virt. eigenvalues --    0.02060   0.02741   0.02839   0.03025   0.03229
  Beta virt. eigenvalues --    0.03550   0.03871   0.04000   0.04348   0.04441
  Beta virt. eigenvalues --    0.04615   0.05089   0.05200   0.05370   0.05412
  Beta virt. eigenvalues --    0.05686   0.05909   0.06204   0.06266   0.06547
  Beta virt. eigenvalues --    0.06640   0.07047   0.07104   0.07174   0.07783
  Beta virt. eigenvalues --    0.07861   0.08077   0.08286   0.08670   0.08954
  Beta virt. eigenvalues --    0.09321   0.09583   0.09867   0.09988   0.10438
  Beta virt. eigenvalues --    0.10487   0.11023   0.11512   0.11557   0.11802
  Beta virt. eigenvalues --    0.12005   0.12230   0.12423   0.12616   0.12714
  Beta virt. eigenvalues --    0.12956   0.13259   0.13488   0.14020   0.14212
  Beta virt. eigenvalues --    0.14450   0.14640   0.14960   0.15060   0.15435
  Beta virt. eigenvalues --    0.15596   0.15733   0.15800   0.16139   0.16593
  Beta virt. eigenvalues --    0.16718   0.16807   0.17357   0.17520   0.17712
  Beta virt. eigenvalues --    0.17870   0.18154   0.18542   0.18656   0.18750
  Beta virt. eigenvalues --    0.19228   0.19398   0.19552   0.19763   0.20063
  Beta virt. eigenvalues --    0.20291   0.20327   0.20807   0.20928   0.21165
  Beta virt. eigenvalues --    0.21538   0.21635   0.21958   0.22186   0.22507
  Beta virt. eigenvalues --    0.22691   0.22858   0.23145   0.23484   0.23581
  Beta virt. eigenvalues --    0.24047   0.24283   0.24474   0.24832   0.25001
  Beta virt. eigenvalues --    0.25285   0.25450   0.25661   0.25897   0.26191
  Beta virt. eigenvalues --    0.26475   0.26804   0.27272   0.27446   0.27649
  Beta virt. eigenvalues --    0.27966   0.28119   0.28229   0.28571   0.28686
  Beta virt. eigenvalues --    0.28937   0.29138   0.29482   0.29846   0.29973
  Beta virt. eigenvalues --    0.30155   0.30328   0.30704   0.30865   0.31018
  Beta virt. eigenvalues --    0.31514   0.31793   0.31960   0.32138   0.32349
  Beta virt. eigenvalues --    0.32437   0.32890   0.33151   0.33229   0.33337
  Beta virt. eigenvalues --    0.33600   0.33633   0.33885   0.34100   0.34227
  Beta virt. eigenvalues --    0.34444   0.34720   0.34925   0.35276   0.35341
  Beta virt. eigenvalues --    0.35710   0.35743   0.35950   0.36174   0.36250
  Beta virt. eigenvalues --    0.36829   0.36912   0.37161   0.37337   0.37575
  Beta virt. eigenvalues --    0.37683   0.38112   0.38295   0.38532   0.38655
  Beta virt. eigenvalues --    0.39291   0.39364   0.39470   0.39734   0.39971
  Beta virt. eigenvalues --    0.40090   0.40311   0.40475   0.40487   0.40736
  Beta virt. eigenvalues --    0.40976   0.41255   0.41340   0.41585   0.41811
  Beta virt. eigenvalues --    0.42036   0.42267   0.42337   0.42489   0.42735
  Beta virt. eigenvalues --    0.42889   0.43161   0.43431   0.43741   0.44191
  Beta virt. eigenvalues --    0.44356   0.44531   0.44770   0.44961   0.45145
  Beta virt. eigenvalues --    0.45366   0.45486   0.45709   0.45951   0.46291
  Beta virt. eigenvalues --    0.46808   0.46828   0.47026   0.47448   0.47841
  Beta virt. eigenvalues --    0.48041   0.48252   0.48404   0.48587   0.48742
  Beta virt. eigenvalues --    0.49290   0.49437   0.49556   0.49821   0.50086
  Beta virt. eigenvalues --    0.50429   0.50655   0.50974   0.51162   0.51445
  Beta virt. eigenvalues --    0.51569   0.51838   0.52114   0.52430   0.52630
  Beta virt. eigenvalues --    0.53045   0.53303   0.53401   0.53778   0.54087
  Beta virt. eigenvalues --    0.54400   0.54673   0.54966   0.55121   0.55442
[...]
  1396. RY*(   1) H  55                  0.00067     1.10901   
  1397. RY*(   2) H  55                  0.00010     1.96072   
  1398. RY*(   3) H  55                  0.00006     2.07851   
  1399. RY*(   4) H  55                  0.00003     2.30526   
  1400. RY*(   5) H  55                  0.00001     2.80522   
  1401. RY*(   1) H  56                  0.00042     1.30757   
  1402. RY*(   2) H  56                  0.00009     1.36445   
  1403. RY*(   3) H  56                  0.00007     2.33936   
  1404. RY*(   4) H  56                  0.00004     2.43380   
  1405. RY*(   5) H  56                  0.00000     3.00733   
  1406. RY*(   1) H  57                  0.00023     1.14759   
  1407. RY*(   2) H  57                  0.00009     1.47594   
  1408. RY*(   3) H  57                  0.00004     2.11590   
  1409. RY*(   4) H  57                  0.00003     2.32950   
  1410. RY*(   5) H  57                  0.00001     2.94790   
  1411. RY*(   1) H  58                  0.00025     0.91376   
  1412. RY*(   2) H  58                  0.00009     1.74041   
  1413. RY*(   3) H  58                  0.00005     2.14536   
  1414. RY*(   4) H  58                  0.00003     2.33669   
  1415. RY*(   5) H  58                  0.00000     2.96700   
  1416. RY*(   1) H  59                  0.00029     1.02667   
  1417. RY*(   2) H  59                  0.00010     1.46366   
  1418. RY*(   3) H  59                  0.00005     2.13480   
  1419. RY*(   4) H  59                  0.00003     2.32699   
  1420. RY*(   5) H  59                  0.00001     2.96819   
  1421. RY*(   1) H  60                  0.00024     1.16370   
  1422. RY*(   2) H  60                  0.00009     1.42980   
  1423. RY*(   3) H  60                  0.00005     2.14758   
  1424. RY*(   4) H  60                  0.00003     2.36564   
  1425. RY*(   5) H  60                  0.00000     2.96337   
  1426. RY*(   1) H  61                  0.00026     1.19983   
  1427. RY*(   2) H  61                  0.00006     1.58603   
  1428. RY*(   3) H  61                  0.00005     2.10830   
  1429. RY*(   4) H  61                  0.00004     2.46184   
  1430. RY*(   5) H  61                  0.00000     3.02475   
  1431. RY*(   1) H  62                  0.00029     1.05197   
  1432. RY*(   2) H  62                  0.00010     1.43669   
  1433. RY*(   3) H  62                  0.00005     2.11641   
  1434. RY*(   4) H  62                  0.00003     2.33996   
  1435. RY*(   5) H  62                  0.00001     2.96520   
  1436. RY*(   1) H  63                  0.00034     1.24181   
  1437. RY*(   2) H  63                  0.00009     2.33003   
  1438. RY*(   3) H  63                  0.00006     1.50903   
  1439. RY*(   4) H  63                  0.00006     2.40070   
  1440. RY*(   5) H  63                  0.00001     2.82011   
  1441. RY*(   1) H  64                  0.00027     1.41333   
  1442. RY*(   2) H  64                  0.00006     1.57756   
  1443. RY*(   3) H  64                  0.00007     2.41837   
  1444. RY*(   4) H  64                  0.00003     2.27759   
  1445. RY*(   5) H  64                  0.00001     2.69463   
  1446. RY*(   1) H  65                  0.00054     0.77993   
  1447. RY*(   2) H  65                  0.00011     2.22906   
  1448. RY*(   3) H  65                  0.00006     2.22366   
  1449. RY*(   4) H  65                  0.00005     2.56005   
  1450. RY*(   5) H  65                  0.00001     2.93059   
  1451. RY*(   1) H  66                  0.00036     1.89766   
  1452. RY*(   2) H  66                  0.00009     2.32635   
  1453. RY*(   3) H  66                  0.00005     2.56223   
  1454. RY*(   4) H  66                  0.00003     1.29699   
  1455. RY*(   5) H  66                  0.00001     2.80310   
  1456. RY*(   1) H  67                  0.00032     1.32278   
  1457. RY*(   2) H  67                  0.00009     2.29495   
  1458. RY*(   3) H  67                  0.00007     1.36651   
  1459. RY*(   4) H  67                  0.00005     2.42904   
  1460. RY*(   5) H  67                  0.00001     2.84403   
  1461. RY*(   1) H  68                  0.00034     1.24128   
  1462. RY*(   2) H  68                  0.00009     2.27378   
  1463. RY*(   3) H  68                  0.00006     1.76099   
  1464. RY*(   4) H  68                  0.00004     2.15331   
  1465. RY*(   5) H  68                  0.00001     2.87119   
  1466. RY*(   1) H  69                  0.00057     0.69268   
  1467. RY*(   2) H  69                  0.00011     2.25449   
  1468. RY*(   3) H  69                  0.00006     2.25631   
  1469. RY*(   4) H  69                  0.00005     2.59564   
  1470. RY*(   5) H  69                  0.00000     2.94269   
  1471. RY*(   1) H  70                  0.00084     0.58032   
  1472. RY*(   2) H  70                  0.00010     2.41237   
  1473. RY*(   3) H  70                  0.00008     2.14854   
  1474. RY*(   4) H  70                  0.00005     2.46945   
  1475. RY*(   5) H  70                  0.00001     2.92016   
  1476. RY*(   1) H  71                  0.00033     1.13250   
  1477. RY*(   2) H  71                  0.00006     1.50606   
  1478. RY*(   3) H  71                  0.00005     2.13366   
  1479. RY*(   4) H  71                  0.00004     2.42691   
  1480. RY*(   5) H  71                  0.00000     3.00177   
  1481. RY*(   1) H  72                  0.00027     1.12601   
  1482. RY*(   2) H  72                  0.00009     1.43995   
  1483. RY*(   3) H  72                  0.00005     2.13146   
  1484. RY*(   4) H  72                  0.00003     2.34413   
  1485. RY*(   5) H  72                  0.00001     2.96829   
  1486. RY*(   1) H  73                  0.00028     1.07872   
  1487. RY*(   2) H  73                  0.00010     1.44903   
  1488. RY*(   3) H  73                  0.00005     2.09821   
  1489. RY*(   4) H  73                  0.00003     2.33787   
  1490. RY*(   5) H  73                  0.00001     2.95603   
  1491. RY*(   1) H  74                  0.00040     1.11611   
  1492. RY*(   2) H  74                  0.00007     1.62461   
  1493. RY*(   3) H  74                  0.00005     1.69046   
  1494. RY*(   4) H  74                  0.00002     2.36875   
  1495. RY*(   5) H  74                  0.00002     2.54012   
  1496. RY*(   1) H  75                  0.00035     1.21356   
  1497. RY*(   2) H  75                  0.00006     1.01254   
  1498. RY*(   3) H  75                  0.00004     2.05268   
  1499. RY*(   4) H  75                  0.00002     2.09594   
  1500. RY*(   5) H  75                  0.00000     2.86509   
  1501. RY*(   1) H  76                  0.00076     1.00134   
  1502. RY*(   2) H  76                  0.00032     1.75363   
  1503. RY*(   3) H  76                  0.00017     2.02053   
  1504. RY*(   4) H  76                  0.00013     2.09083   
  1505. RY*(   5) H  76                  0.00002     1.88905   
  1506. RY*(   1) H  77                  0.00055     0.55877   
  1507. RY*(   2) H  77                  0.00014     2.00942   
  1508. RY*(   3) H  77                  0.00010     2.11760   
  1509. RY*(   4) H  77                  0.00006     2.83367   
  1510. RY*(   5) H  77                  0.00001     3.03737   
  1511. RY*(   1) H  78                  0.00053     1.20696   
  1512. RY*(   2) H  78                  0.00012     2.14240   
  1513. RY*(   3) H  78                  0.00009     1.47952   
  1514. RY*(   4) H  78                  0.00007     2.87134   
  1515. RY*(   5) H  78                  0.00000     3.13280   
  1516. RY*(   1) H  79                  0.00045     0.60025   
  1517. RY*(   2) H  79                  0.00014     1.99025   
  1518. RY*(   3) H  79                  0.00010     2.09636   
  1519. RY*(   4) H  79                  0.00006     2.86051   
  1520. RY*(   5) H  79                  0.00000     3.04933   
  1521. RY*(   1) H  80                  0.00083     0.69178   
  1522. RY*(   2) H  80                  0.00016     2.05221   
  1523. RY*(   3) H  80                  0.00013     2.23338   
  1524. RY*(   4) H  80                  0.00007     2.85202   
  1525. RY*(   5) H  80                  0.00001     3.14002   
  1526. RY*(   1) H  81                  0.00047     1.41256   
  1527. RY*(   2) H  81                  0.00006     2.10363   
  1528. RY*(   3) H  81                  0.00003     2.34732   
  1529. RY*(   4) H  81                  0.00004     2.73418   
  1530. RY*(   5) H  81                  0.00002     1.80009   
  1531. BD*(   1)Fe   1 - N   6          0.06133     0.08435   
  1532. BD*(   2)Fe   1 - N   6          0.07759    -0.17886   
  1533. BD*(   1)Fe   1 - N  33          0.06269     0.08868   
  1534. BD*(   2)Fe   1 - N  33          0.05937    -0.16453   
  1535. BD*(   1)Fe   1 - S  45          0.01999    -0.06189   
  1536. BD*(   1) C   2 - C   7          0.01021     0.46514   
  1537. BD*(   1) C   2 - C  37          0.01001     0.45007   
  1538. BD*(   2) C   2 - C  37          0.18591    -0.08093  1610(v),164(v),1534(v)
                                                    205(g),1544(r),1549(r)
                                                    161(r)
  1539. BD*(   1) C   2 - H  78          0.00730     0.33076   
  1540. BD*(   1) C   3 - C  10          0.00979     0.45674   
  1541. BD*(   1) C   3 - C  18          0.01049     0.43290   
  1542. BD*(   1) C   3 - H  77          0.00525     0.32937   
  1543. BD*(   1) C   4 - C  21          0.00930     0.42198   
  1544. BD*(   2) C   4 - C  21          0.18679    -0.08058  1590(v),1573(v),1577(v)
                                                    258(g),1538(r),161(r)
  1545. BD*(   1) C   4 - C  26          0.01129     0.44262   
  1546. BD*(   1) C   4 - H  80          0.00770     0.34263   
  1547. BD*(   1) C   5 - C  29          0.00974     0.45852   
  1548. BD*(   1) C   5 - C  34          0.00988     0.41138   
  1549. BD*(   2) C   5 - C  34          0.19081    -0.08821  1610(v),172(v),1534(v)
                                                    1538(r),283(g)
  1550. BD*(   1) C   5 - H  79          0.00541     0.32576   
  1551. BD*(   1) N   6 - C   7          0.01451     0.34517   
  1552. BD*(   1) N   6 - C  10          0.01412     0.35525   
  1553. BD*(   1) C   7 - C   8          0.01714     0.41768   
  1554. BD*(   1) C   8 - C   9          0.01165     0.50370   
  1555. BD*(   2) C   8 - C   9          0.12559    -0.04227  165(v),164(v),1562(v)
                                                    1561(v),1564(v)
  1556. BD*(   1) C   8 - C  12          0.01157     0.29803   
  1557. BD*(   1) C   9 - C  10          0.01611     0.41647   
  1558. BD*(   1) C   9 - C  11          0.00827     0.29409   
  1559. BD*(   1) C  11 - H  60          0.00297     0.31477   
  1560. BD*(   1) C  11 - H  61          0.00234     0.32384   
  1561. BD*(   1) C  11 - H  62          0.00414     0.31310   
  1562. BD*(   1) C  12 - C  13          0.00757     0.25459   
  1563. BD*(   1) C  12 - H  65          0.00926     0.29968   
  1564. BD*(   1) C  12 - H  66          0.00876     0.31221   
  1565. BD*(   1) C  13 - C  14          0.03083     0.26486   
  1566. BD*(   1) C  13 - H  63          0.00790     0.29991   
  1567. BD*(   1) C  13 - H  64          0.00699     0.29423   
  1568. BD*(   1) C  14 - O  15          0.01325     0.48642   
  1569. BD*(   2) C  14 - O  15          0.12550    -0.07195  1567(v),1566(v),519(g)
  1570. BD*(   1) C  14 - O  16          0.03428     0.40422   
  1571. BD*(   1) O  16 - H  47          0.00643     0.31655   
  1572. BD*(   1) N  17 - C  18          0.01282     0.40734   
  1573. BD*(   2) N  17 - C  18          0.31838    -0.11354  163(v),1544(v),1577(v)
                                                    161(r),623(g),596(g),1590(r)
                                                    622(g),1534(r),1532(r)
                                                    599(g)
  1574. BD*(   1) N  17 - C  21          0.01199     0.38652   
  1575. BD*(   1) C  18 - C  19          0.01744     0.39992   
  1576. BD*(   1) C  19 - C  20          0.01047     0.49250   
  1577. BD*(   2) C  19 - C  20          0.12347    -0.04463  1585(v),1544(v),1573(v)
                                                    1583(v),1581(v)
  1578. BD*(   1) C  19 - C  22          0.00803     0.29266   
  1579. BD*(   1) C  20 - C  21          0.02031     0.31864   
  1580. BD*(   1) C  20 - C  23          0.01400     0.34214   
  1581. BD*(   1) C  22 - H  57          0.00324     0.31194   
  1582. BD*(   1) C  22 - H  58          0.00250     0.32188   
  1583. BD*(   1) C  22 - H  59          0.00398     0.31317   
  1584. BD*(   1) C  23 - C  24          0.00298     0.52150   
  1585. BD*(   2) C  23 - C  24          0.03321    -0.05384   
  1586. BD*(   1) C  23 - H  56          0.01092     0.35185   
  1587. BD*(   1) C  24 - H  54          0.00450     0.33623   
  1588. BD*(   1) C  24 - H  55          0.00676     0.35175   
  1589. BD*(   1) N  25 - C  26          0.01338     0.39263   
  1590. BD*(   2) N  25 - C  26          0.33411    -0.11355  1544(v),1594(v),172(v)
                                                    161(r),830(g),804(g),1532(r)
                                                    1534(r),831(g),1573(r)
                                                    807(g)
  1591. BD*(   1) N  25 - C  29          0.01363     0.37102   
  1592. BD*(   1) C  26 - C  27          0.01556     0.42137   
  1593. BD*(   1) C  27 - C  28          0.01165     0.44349   
  1594. BD*(   2) C  27 - C  28          0.14461    -0.05427  1602(v),1590(v),172(v)
                                                    1599(v),1603(v),1598(v)
  1595. BD*(   1) C  27 - C  30          0.00744     0.30118   
  1596. BD*(   1) C  28 - C  29          0.01791     0.39211   
  1597. BD*(   1) C  28 - C  31          0.01546     0.33848   
  1598. BD*(   1) C  30 - H  48          0.00321     0.32931   
  1599. BD*(   1) C  30 - H  49          0.00423     0.32278   
  1600. BD*(   1) C  30 - H  50          0.00365     0.32333   
  1601. BD*(   1) C  31 - C  32          0.00288     0.51536   
  1602. BD*(   2) C  31 - C  32          0.03556    -0.04582   
  1603. BD*(   1) C  31 - H  53          0.01146     0.34338   
  1604. BD*(   1) C  32 - H  51          0.00389     0.35882   
  1605. BD*(   1) C  32 - H  52          0.00436     0.32517   
  1606. BD*(   1) N  33 - C  34          0.01397     0.37733   
  1607. BD*(   1) N  33 - C  37          0.01425     0.38159   
  1608. BD*(   1) C  34 - C  35          0.01851     0.33495   
  1609. BD*(   1) C  35 - C  36          0.01089     0.50287   
  1610. BD*(   2) C  35 - C  36          0.11220    -0.04839  1538(v),1549(v),1617(v)
                                                    1619(v),1616(v),1615(v)
  1611. BD*(   1) C  35 - C  38          0.00836     0.28544   
  1612. BD*(   1) C  36 - C  37          0.01908     0.33964   
  1613. BD*(   1) C  36 - C  39          0.01125     0.28246   
  1614. BD*(   1) C  38 - H  71          0.00255     0.31419   
  1615. BD*(   1) C  38 - H  72          0.00346     0.30497   
  1616. BD*(   1) C  38 - H  73          0.00409     0.30339   
  1617. BD*(   1) C  39 - C  40          0.00731     0.23995   
  1618. BD*(   1) C  39 - H  69          0.00825     0.29215   
  1619. BD*(   1) C  39 - H  70          0.01048     0.29427   
  1620. BD*(   1) C  40 - C  41          0.03390     0.25655   
  1621. BD*(   1) C  40 - H  67          0.00698     0.29980   
  1622. BD*(   1) C  40 - H  68          0.00894     0.28594   
  1623. BD*(   1) C  41 - O  42          0.01823     0.47700   
  1624. BD*(   2) C  41 - O  42          0.10988    -0.07457  1622(v),1221(g),1617(v)
  1625. BD*(   1) C  41 - O  43          0.04007     0.42817   
  1626. BD*(   1) O  43 - H  46          0.00321     1.21898   
  1627. BD*(   1) C  44 - S  45          0.01047    -0.00341   
  1628. BD*(   1) C  44 - H  74          0.00778     0.26500   
  1629. BD*(   1) C  44 - H  75          0.00647     0.26839   
  1630. BD*(   1) C  44 - H  81          0.00523     0.27391   
  1631. BD*(   1) S  45 - H  76          0.01443     0.09111   
       -------------------------------
              Total Lewis  166.16799  ( 97.1743%)
        Valence non-Lewis    4.53400  (  2.6515%)
        Rydberg non-Lewis    0.29801  (  0.1743%)
       -------------------------------
            Total unit  1  171.00000  (100.0000%)
           Charge unit  1    3.00000
 1\1\GINC-NODE408\SP\UPBE1PBE\def2TZVP\C35H36Fe1N4O4S1(1+,6)\ZHARTOVSKA
 \09-Feb-2023\0\\# PBE1PBE/def2TZVP scf=qc empiricaldispersion=GD3BJ sc
 f=maxcycle=999 geom=check pop=nbo\\6xcx_III_H\\1,6\Fe,0,-0.149,17.275,
 21.799\C,0,1.738,14.598,20.888\C,0,-0.94,15.608,24.807\C,0,-1.399,20.1
 89,23.203\C,0,0.646,18.94,18.997\N,0,0.235,15.5,22.643\C,0,1.129,14.57
 9,22.118\C,0,1.349,13.54,23.049\C,0,0.602,13.815,24.144\C,0,-0.083,15.
 025,23.899\C,0,0.515,12.984,25.401\C,0,2.234,12.33,22.867\C,0,3.568,12
 .525,23.589\C,0,4.255,11.201,23.822\O,0,5.429,11.197,24.251\O,0,3.664,
 10.114,23.604\N,0,-0.984,17.779,23.668\C,0,-1.24,16.966,24.702\C,0,-1.
 864,17.684,25.762\C,0,-2.015,18.968,25.346\C,0,-1.446,19.015,23.968\C,
 0,-2.292,17.149,27.107\C,0,-2.615,20.058,26.153\C,0,-3.376,21.013,25.6
 1\N,0,-0.39,19.25,21.192\C,0,-0.834,20.295,21.935\C,0,-0.643,21.481,21
 .2\C,0,-0.059,21.133,19.979\C,0,0.107,19.712,20.001\C,0,-1.02,22.857,2
 1.687\C,0,0.336,22.037,18.873\C,0,-0.414,23.057,18.457\N,0,0.961,16.85
 8,20.33\C,0,1.133,17.646,19.249\C,0,2.016,16.99,18.273\C,0,2.323,15.78
 6,18.788\C,0,1.635,15.717,20.086\C,0,2.463,17.573,16.956\C,0,3.205,14.
 718,18.175\C,0,4.686,15.12,18.225\C,0,5.578,13.974,17.794\O,0,6.628,13
 .72,18.427\O,0,5.282,13.278,16.797\C,0,-1.971,15.532,19.494\S,0,-2.52,
 16.587,20.839\H,0,5.19745429,12.83203845,16.27231825\H,0,4.28914319,9.
 38928135,23.67869182\H,0,-0.2998537,23.56803753,21.33955943\H,0,-1.987
 42462,23.1160248,21.31030948\H,0,-1.04030346,22.86357572,22.75678714\H
 ,0,0.14828792,23.65733182,17.77265068\H,0,-1.28756335,22.68076651,17.9
 6686183\H,0,1.27117567,21.86173212,18.38348224\H,0,-3.09437723,21.9643
 4238,26.0106698\H,0,-3.23874493,21.01813212,24.54885217\H,0,-2.4321835
 2,20.08060725,27.20702422\H,0,-2.85406321,16.24882594,26.97035591\H,0,
 -2.89925121,17.87674936,27.6035147\H,0,-1.42608121,16.94218016,27.7005
 5725\H,0,0.52813879,13.62762211,26.25568003\H,0,1.34930359,12.31549783
 ,25.44507228\H,0,-0.39411738,12.41977754,25.393345\H,0,4.18722589,13.3
 1887784,23.22676074\H,0,3.56008132,13.20289377,24.41682687\H,0,2.28631
 676,11.92677458,21.87726659\H,0,1.76371399,11.37696826,22.9913446\H,0,
 4.99779582,15.65448719,19.09793002\H,0,4.92556353,16.07986986,17.81737
 375\H,0,2.984253,13.71001405,18.45808142\H,0,2.86372501,14.30442613,17
 .2490475\H,0,3.19184144,16.92903599,16.50990526\H,0,2.89355227,18.5385
 3214,17.12114368\H,0,1.62076615,17.66508779,16.30250021\H,0,-1.9558965
 7,14.51384669,19.82268788\H,0,-2.64277363,15.62986317,18.66693108\H,0,
 -2.92057432,17.35677397,21.8203706\H,0,-1.37362878,15.02112994,25.5895
 916\H,0,2.29182092,13.74666979,20.55122224\H,0,0.69529041,19.33354202,
 18.00322179\H,0,-1.83073519,21.07173083,23.62642769\H,0,-0.98714315,15
 .82354346,19.19080352\\Version=ES64L-G16RevA.03\State=6-A\HF=-3534.888
 9526\S2=8.779549\S2-1=0.\S2A=8.750183\RMSD=1.090e-11\Dipole=-3.1349679
 ,-0.1244429,-1.6777959\Quadrupole=-47.8782617,19.2378016,28.6404601,5.
 1441273,-17.7489929,4.9398282\PG=C01 [X(C35H36Fe1N4O4S1)]\\@


 THE DIFFERENCE BETWEEN A NOOSE AND A HALO IS ONLY 12 INCHES.
 Job cpu time:      16 days 15 hours 39 minutes  5.0 seconds.
 Elapsed time:       4 days  4 hours 30 minutes 37.1 seconds.
 File lengths (MBytes):  RWF=   2326 Int=      0 D2E=      0 Chk=    205 Scr=      1
 Normal termination of Gaussian 16 at Thu Feb  9 16:24:49 2023.
