 Entering Gaussian System, Link 0=g16
 Input=/net/homes/chemie/zhartovska/work/BioModel/Konrad/1jp9/1jp912/1jp912.com
 Output=/net/homes/chemie/zhartovska/work/BioModel/Konrad/1jp9/1jp912/1jp912.log
 Initial command:
 /afs/math/software/gaussian/g16.A03/g16/l1.exe "/scratch/zhartovska_gaussian.moZzHap/Gau-1754.inp" -scrdir="/scratch/zhartovska_gaussian.moZzHap/"
 Entering Link 1 = /afs/math/software/gaussian/g16.A03/g16/l1.exe PID=      1755.
  
 Copyright (c) 1988,1990,1992,1993,1995,1998,2003,2009,2016,
            Gaussian, Inc.  All Rights Reserved.
  
 This is part of the Gaussian(R) 16 program.  It is based on
 the Gaussian(R) 09 system (copyright 2009, Gaussian, Inc.),
 the Gaussian(R) 03 system (copyright 2003, Gaussian, Inc.),
 the Gaussian(R) 98 system (copyright 1998, Gaussian, Inc.),
 the Gaussian(R) 94 system (copyright 1995, Gaussian, Inc.),
 the Gaussian 92(TM) system (copyright 1992, Gaussian, Inc.),
 the Gaussian 90(TM) system (copyright 1990, Gaussian, Inc.),
 the Gaussian 88(TM) system (copyright 1988, Gaussian, Inc.),
 the Gaussian 86(TM) system (copyright 1986, Carnegie Mellon
 University), and the Gaussian 82(TM) system (copyright 1983,
 Carnegie Mellon University). Gaussian is a federally registered
 trademark of Gaussian, Inc.
  
 This software contains proprietary and confidential information,
 including trade secrets, belonging to Gaussian, Inc.
  
 This software is provided under written license and may be
 used, copied, transmitted, or stored only in accord with that
 written license.
  
 The following legend is applicable only to US Government
 contracts under FAR:
  
                    RESTRICTED RIGHTS LEGEND
  
 Use, reproduction and disclosure by the US Government is
 subject to restrictions as set forth in subparagraphs (a)
 and (c) of the Commercial Computer Software - Restricted
 Rights clause in FAR 52.227-19.
  
 Gaussian, Inc.
 340 Quinnipiac St., Bldg. 40, Wallingford CT 06492
  
  
 ---------------------------------------------------------------
 Warning -- This program may not be used in any manner that
 competes with the business of Gaussian, Inc. or will provide
 assistance to any competitor of Gaussian, Inc.  The licensee
 of this program is prohibited from giving any competitor of
 Gaussian, Inc. access to this program.  By using this program,
 the user acknowledges that Gaussian, Inc. is engaged in the
 business of creating and licensing software in the field of
 computational chemistry and represents and warrants to the
 licensee that it is not a competitor of Gaussian, Inc. and that
 it will not use this program in any manner prohibited above.
 ---------------------------------------------------------------
  

 Cite this work as:
 Gaussian 16, Revision A.03,
 M. J. Frisch, G. W. Trucks, H. B. Schlegel, G. E. Scuseria, 
 M. A. Robb, J. R. Cheeseman, G. Scalmani, V. Barone, 
 G. A. Petersson, H. Nakatsuji, X. Li, M. Caricato, A. V. Marenich, 
 J. Bloino, B. G. Janesko, R. Gomperts, B. Mennucci, H. P. Hratchian, 
 J. V. Ortiz, A. F. Izmaylov, J. L. Sonnenberg, D. Williams-Young, 
 F. Ding, F. Lipparini, F. Egidi, J. Goings, B. Peng, A. Petrone, 
 T. Henderson, D. Ranasinghe, V. G. Zakrzewski, J. Gao, N. Rega, 
 G. Zheng, W. Liang, M. Hada, M. Ehara, K. Toyota, R. Fukuda, 
 J. Hasegawa, M. Ishida, T. Nakajima, Y. Honda, O. Kitao, H. Nakai, 
 T. Vreven, K. Throssell, J. A. Montgomery, Jr., J. E. Peralta, 
 F. Ogliaro, M. J. Bearpark, J. J. Heyd, E. N. Brothers, K. N. Kudin, 
 V. N. Staroverov, T. A. Keith, R. Kobayashi, J. Normand, 
 K. Raghavachari, A. P. Rendell, J. C. Burant, S. S. Iyengar, 
 J. Tomasi, M. Cossi, J. M. Millam, M. Klene, C. Adamo, R. Cammi, 
 J. W. Ochterski, R. L. Martin, K. Morokuma, O. Farkas, 
 J. B. Foresman, and D. J. Fox, Gaussian, Inc., Wallingford CT, 2016.
 
 ******************************************
 Gaussian 16:  ES64L-G16RevA.03 25-Dec-2016
                27-Dec-2022 
 ******************************************
 %nprocs=12
 Will use up to   12 processors via shared memory.
 %mem=16GB
 %oldchk=1jp9_III_D.chk
 %chk=1jp9_III_Dn.chk
 Copying data from "1jp9_III_D.chk" to current chk file "1jp9_III_Dn.chk"
 IOpt=  2 FromEx=T IUOpen= 4 IOptOp= 5 NList=   0 IFRang= 0 IUIn= 4 IUOut= 2.
 ----------------------------------------------------------------------
 # PBE1PBE/def2TZVP empiricaldispersion=GD3BJ scf=maxcycle=999 geom=che
 ck guess=read pop=nbo
 ----------------------------------------------------------------------
 1/29=2,38=1,172=1/1;
 2/12=2,40=1/2;
 3/5=44,7=101,11=2,14=-4,25=1,30=1,74=-13,116=-2,124=41/1,2,3;
 4/5=1/1;
 5/5=2,7=999,38=6/2;
 6/7=2,8=2,9=2,10=2,28=1,40=1/1,7;
 99/5=1,9=1/99;
 ----------
 1jp9_III_D
 ----------
 Structure from the checkpoint file:  "1jp9_III_Dn.chk"
 Charge =  1 Multiplicity = 2
 Z-Matrix found in chk file.
 C,0,9.522,29.638,2.62
 C,0,10.701,29.479,3.525
 N,0,10.928,30.315001,4.596
 C,0,11.748,28.622,3.487
 C,0,12.066,29.983,5.177
 N,0,12.584,28.959,4.524
 Fe,0,14.627,28.121,4.795
 C,0,15.882,31.27,5.037
 C,0,13.895,28.174999,8.147
 C,0,13.451,24.923,4.61
 C,0,15.452,28.044001,1.547
 N,0,14.83,29.443001,6.281
 C,0,15.369,30.707001,6.203
 C,0,15.333,31.365999,7.516
 C,0,14.77,30.465,8.37
 C,0,14.467,29.298,7.619
 C,0,14.5,30.634001,9.847
 C,0,15.824,32.738998,7.794
 C,0,14.651,33.764999,7.933
 C,0,13.796,33.793999,6.697
 O,0,14.247,34.201,5.615
 O,0,12.599,33.380001,6.81
 N,0,13.821,26.812,6.079
 C,0,13.594,27.017,7.439
 C,0,12.987,25.812,8.025
 C,0,12.861,24.917999,7.054
 C,0,13.387,25.547001,5.855
 C,0,12.617,25.700001,9.478
 C,0,12.304,23.518,7.133
 C,0,12.6540801,22.70642624,8.16030667
 N,0,14.473,26.757999,3.339
 C,0,13.959,25.471001,3.438
 C,0,14.045,24.795,2.175
 C,0,14.614,25.679001,1.327
 C,0,14.865,26.896,2.065
 C,0,13.587,23.384001,1.94
 C,0,14.988,25.563999,-0.121
 C,0,14.75710306,24.40873409,-0.79078849
 N,0,15.491,29.417,3.511
 C,0,15.748,29.212,2.197
 C,0,16.368999,30.343,1.609
 C,0,16.5,31.271999,2.617
 C,0,15.943,30.679001,3.806
 C,0,16.795,30.461,0.175
 C,0,17.118,32.632999,2.493
 C,0,18.642,32.530998,2.813
 C,0,19.365999,33.835999,2.726
 O,0,19.007,34.765999,1.962
 O,0,20.375999,33.960999,3.469
 O,0,16.577,27.254999,5.015
 H,0,12.42773767,32.46873619,7.05872807
 H,0,15.05783496,34.74052909,8.09951234
 H,0,14.04467787,33.49123506,8.77104939
 H,0,16.46300377,33.04820937,6.99339865
 H,0,16.38663965,32.72914598,8.70407668
 H,0,19.66649899,35.30504101,1.51917409
 H,0,18.75697045,32.14291317,3.80349077
 H,0,19.08986648,31.84622738,2.12350394
 H,0,16.98497857,32.9972961,1.49575734
 H,0,16.65086745,33.30285626,3.18435984
 H,0,17.73396066,29.96600286,0.03997886
 H,0,16.05854743,30.00668329,-0.45439172
 H,0,16.89625405,31.49445434,-0.08310801
 H,0,15.29585509,31.19277466,10.29341536
 H,0,13.576676,31.15727991,9.98320567
 H,0,14.43626555,29.67162828,10.31033213
 H,0,16.26716287,32.2654204,5.11241742
 H,0,13.6594945,28.18790866,9.19068122
 H,0,15.70486129,28.01094827,0.5078327
 H,0,13.07184509,23.92417932,4.55084936
 H,0,13.37601483,26.15982111,10.07579758
 H,0,11.68244467,26.19286683,9.64708466
 H,0,12.52922975,24.6676109,9.74514615
 H,0,11.63258535,23.16594001,6.37791316
 H,0,13.61998936,22.80021075,8.6109992
 H,0,11.96457782,21.97186115,8.52072414
 H,0,14.31028302,22.70328447,2.33797824
 H,0,12.64619789,23.22885584,2.42551145
 H,0,13.47824045,23.21466873,0.88909661
 H,0,15.43710319,26.39410167,-0.62511891
 H,0,15.50942398,23.64848343,-0.82132006
 H,0,13.82247793,24.25684461,-1.28909107
 H,0,12.49555452,30.46228499,6.03179168
 H,0,10.32496967,31.05742484,4.88782402
 H,0,11.8966582,27.83092054,2.78202196
 H,0,9.77772733,29.29838558,1.63808067
 H,0,8.70363214,29.05990456,2.99547265
 H,0,9.24067974,30.66952645,2.57862267
 H,0,17.42833133,27.69865988,5.015
 H,0,15.87493541,27.90975491,5.015
 Recover connectivity data from disk.
 Stoichiometry    C38H40FeN6O5(1+,2)
 Framework group  C1[X(C38H40FeN6O5)]
 Deg. of freedom   264
 Full point group                 C1      NOp   1
 Largest Abelian subgroup         C1      NOp   1
 Largest concise Abelian subgroup C1      NOp   1
                         Standard orientation:                         
 ---------------------------------------------------------------------
 Center     Atomic      Atomic             Coordinates (Angstroms)
 Number     Number       Type             X           Y           Z
 ---------------------------------------------------------------------
      1          6           0       -1.395105    0.237801    5.325101
      2          6           0       -1.115773   -0.209118    3.926321
      3          7           0       -0.355513   -1.322749    3.644721
      4          6           0       -1.442763    0.336271    2.731444
      5          6           0       -0.222377   -1.442615    2.336770
      6          7           0       -0.872166   -0.448993    1.759017
      7         26           0       -0.786576    0.105819   -0.393746
      8          6           0        2.565034   -0.456715   -0.401142
      9          6           0       -1.329263   -3.231035   -0.981568
     10          6           0       -4.153758    0.650501   -0.492792
     11          6           0       -0.234031    3.379598    0.067908
     12          7           0        0.367113   -1.509906   -0.629387
     13          6           0        1.742071   -1.562904   -0.598045
     14          6           0        2.211031   -2.939568   -0.808791
     15          6           0        1.088196   -3.694995   -0.972063
     16          6           0       -0.029732   -2.825295   -0.864554
     17          6           0        1.002304   -5.182531   -1.222759
     18          6           0        3.634099   -3.361492   -0.827449
     19          6           0        4.051759   -4.076796    0.499890
     20          6           0        3.820045   -3.196221    1.695908
     21          8           0        4.468979   -2.151005    1.857717
     22          8           0        2.930600   -3.567113    2.525546
     23          7           0       -2.416450   -1.028173   -0.657083
     24          6           0       -2.441838   -2.402602   -0.888289
     25          6           0       -3.835030   -2.853940   -1.026783
     26          6           0       -4.613287   -1.789311   -0.889544
     27          6           0       -3.722504   -0.663661   -0.667420
     28          6           0       -4.214727   -4.285441   -1.286181
     29          6           0       -6.118641   -1.711723   -0.955716
     30          6           0       -6.789040   -2.373053   -1.930280
     31          7           0       -1.959044    1.717843   -0.226045
     32          6           0       -3.345937    1.764152   -0.294906
     33          6           0       -3.813284    3.113437   -0.151516
     34          6           0       -2.703750    3.868980   -0.001809
     35          6           0       -1.561623    2.984289   -0.041771
     36          6           0       -5.260287    3.514120   -0.190806
     37          6           0       -2.527577    5.348692    0.169132
     38          6           0       -3.611236    6.162226    0.189446
     39          7           0        0.856109    1.260233   -0.184741
     40          6           0        0.890324    2.601096    0.003905
     41          6           0        2.222846    3.075334    0.104050
     42          6           0        3.031684    1.969985   -0.038249
     43          6           0        2.161108    0.836073   -0.217006
     44          6           0        2.630054    4.504737    0.310798
     45          6           0        4.531444    1.961309   -0.021945
     46          6           0        5.057331    2.147052   -1.479451
     47          6           0        6.548308    2.148766   -1.587869
     48          8           0        7.299647    2.536633   -0.659147
     49          8           0        7.025969    1.736381   -2.678535
     50          8           0       -0.761310    0.686228   -2.458533
     51          1           0        2.015113   -3.641731    2.246411
     52          1           0        5.089999   -4.330404    0.448497
     53          1           0        3.477814   -4.973174    0.609398
     54          1           0        4.250705   -2.498016   -0.965671
     55          1           0        3.786781   -4.032627   -1.646696
     56          1           0        8.102206    3.022678   -0.862271
     57          1           0        4.672614    1.352691   -2.084334
     58          1           0        4.686981    3.076189   -1.859510
     59          1           0        4.887631    2.761898    0.592130
     60          1           0        4.880032    1.028037    0.368427
     61          1           0        2.592098    5.025098   -0.623378
     62          1           0        1.961481    4.969190    1.005199
     63          1           0        3.626945    4.539167    0.697996
     64          1           0        1.805627   -5.483411   -1.862324
     65          1           0        1.072292   -5.705713   -0.292016
     66          1           0        0.068169   -5.411883   -1.691469
     67          1           0        3.619704   -0.637013   -0.393211
     68          1           0       -1.504967   -4.271398   -1.159537
     69          1           0       -0.069536    4.425589    0.222002
     70          1           0       -5.210322    0.818318   -0.513088
     71          1           0       -3.528987   -4.715095   -1.986223
     72          1           0       -4.179692   -4.835535   -0.369082
     73          1           0       -5.205712   -4.324423   -1.687837
     74          1           0       -6.656880   -1.134546   -0.233175
     75          1           0       -6.333630   -2.520918   -2.887170
     76          1           0       -7.773764   -2.747340   -1.742859
     77          1           0       -5.601840    3.518194   -1.204820
     78          1           0       -5.839108    2.816519    0.377716
     79          1           0       -5.370754    4.493094    0.226695
     80          1           0       -1.546296    5.761939    0.275036
     81          1           0       -3.976246    6.589962   -0.720889
     82          1           0       -4.101829    6.376818    1.115820
     83          1           0        0.319932   -2.213891    1.830869
     84          1           0        0.034621   -1.943452    4.324812
     85          1           0       -2.034315    1.213836    2.573818
     86          1           0       -1.510781    1.301373    5.343326
     87          1           0       -2.294454   -0.224823    5.674458
     88          1           0       -0.580033   -0.043232    5.958803
     89          1           0       -0.000853    0.841645   -3.023466
     90          1           0       -0.467646    0.325895   -1.618580
 ---------------------------------------------------------------------
 Rotational constants (GHZ):           0.0726029           0.0504372           0.0376594
 Standard basis: def2TZVP (5D, 7F)
 There are  2056 symmetry adapted cartesian basis functions of A   symmetry.
 There are  1804 symmetry adapted basis functions of A   symmetry.
  1804 basis functions,  2921 primitive gaussians,  2056 cartesian basis functions
   188 alpha electrons      187 beta electrons
       nuclear repulsion energy      7688.2779979158 Hartrees.
 NAtoms=   90 NActive=   90 NUniq=   90 SFac= 1.00D+00 NAtFMM=   60 NAOKFM=T Big=T
 Integral buffers will be    131072 words long.
 Raffenetti 2 integral format.
 Two-electron integral symmetry is turned on.
 Nuclear repulsion after empirical dispersion term =     7688.1497782207 Hartrees.
 One-electron integrals computed using PRISM.
   1 Symmetry operations used in ECPInt.
 ECPInt:  NShTT=  255255 NPrTT=  790653 LenC2=  188093 LenP2D=  377922.
 LDataN:  DoStor=T MaxTD1= 6 Len=  172
 NBasis=  1804 RedAO= T EigKep=  2.49D-06  NBF=  1804
 NBsUse=  1804 1.00D-06 EigRej= -1.00D+00 NBFU=  1804
 Initial guess from the checkpoint file:  "1jp9_III_Dn.chk"
 B after Tr=     0.000000   -0.000000    0.000000
         Rot=    1.000000   -0.000000   -0.000000    0.000000 Ang=   0.00 deg.
 Initial guess <Sx>= 0.0000 <Sy>= 0.0000 <Sz>= 0.5000 <S**2>= 0.7605 S= 0.5052
 Requested convergence on RMS density matrix=1.00D-08 within 999 cycles.
 Requested convergence on MAX density matrix=1.00D-06.
 Requested convergence on             energy=1.00D-06.
 No special actions if energy rises.
 Restarting incremental Fock formation.
 Restarting incremental Fock formation.
 SCF Done:  E(UPBE1PBE) =  -3438.32571616     A.U. after   51 cycles
            NFock= 51  Conv=0.38D-08     -V/T= 2.0031
 <Sx>= 0.0000 <Sy>= 0.0000 <Sz>= 0.5000 <S**2>= 0.7605 S= 0.5052
 <L.S>= 0.000000000000E+00
 Annihilation of the first spin contaminant:
 S**2 before annihilation     0.7605,   after     0.7501

 **********************************************************************

            Population analysis using the SCF density.

 **********************************************************************

 Orbital symmetries:
 Alpha Orbitals:
       Occupied  (A) (A) (A) (A) (A) (A) (A) (A) (A) (A) (A) (A)
                 (A) (A) (A) (A) (A) (A) (A) (A) (A) (A) (A) (A)
                 (A) (A) (A) (A) (A) (A) (A) (A) (A) (A) (A) (A)
                 (A) (A) (A) (A) (A) (A) (A) (A) (A) (A) (A) (A)
                 (A) (A) (A) (A) (A) (A) (A) (A) (A) (A) (A) (A)
                 (A) (A) (A) (A) (A) (A) (A) (A) (A) (A) (A) (A)
                 (A) (A) (A) (A) (A) (A) (A) (A) (A) (A) (A) (A)
                 (A) (A) (A) (A) (A) (A) (A) (A) (A) (A) (A) (A)
                 (A) (A) (A) (A) (A) (A) (A) (A) (A) (A) (A) (A)
                 (A) (A) (A) (A) (A) (A) (A) (A) (A) (A) (A) (A)
                 (A) (A) (A) (A) (A) (A) (A) (A) (A) (A) (A) (A)
                 (A) (A) (A) (A) (A) (A) (A) (A) (A) (A) (A) (A)
                 (A) (A) (A) (A) (A) (A) (A) (A) (A) (A) (A) (A)
                 (A) (A) (A) (A) (A) (A) (A) (A) (A) (A) (A) (A)
                 (A) (A) (A) (A) (A) (A) (A) (A) (A) (A) (A) (A)
                 (A) (A) (A) (A) (A) (A) (A) (A)
       Virtual   (A) (A) (A) (A) (A) (A) (A) (A) (A) (A) (A) (A)
                 (A) (A) (A) (A) (A) (A) (A) (A) (A) (A) (A) (A)
                 (A) (A) (A) (A) (A) (A) (A) (A) (A) (A) (A) (A)
                 (A) (A) (A) (A) (A) (A) (A) (A) (A) (A) (A) (A)
                 (A) (A) (A) (A) (A) (A) (A) (A) (A) (A) (A) (A)
                 (A) (A) (A) (A) (A) (A) (A) (A) (A) (A) (A) (A)
                 (A) (A) (A) (A) (A) (A) (A) (A) (A) (A) (A) (A)
                 (A) (A) (A) (A) (A) (A) (A) (A) (A) (A) (A) (A)
                 (A) (A) (A) (A) (A) (A) (A) (A) (A) (A) (A) (A)
                 (A) (A) (A) (A) (A) (A) (A) (A) (A) (A) (A) (A)
                 (A) (A) (A) (A) (A) (A) (A) (A) (A) (A) (A) (A)
                 (A) (A) (A) (A) (A) (A) (A) (A) (A) (A) (A) (A)
                 (A) (A) (A) (A) (A) (A) (A) (A) (A) (A) (A) (A)
                 (A) (A) (A) (A) (A) (A) (A) (A) (A) (A) (A) (A)
                 (A) (A) (A) (A) (A) (A) (A) (A) (A) (A) (A) (A)
                 (A) (A) (A) (A) (A) (A) (A) (A) (A) (A) (A) (A)
                 (A) (A) (A) (A) (A) (A) (A) (A) (A) (A) (A) (A)
                 (A) (A) (A) (A) (A) (A) (A) (A) (A) (A) (A) (A)
                 (A) (A) (A) (A) (A) (A) (A) (A) (A) (A) (A) (A)
                 (A) (A) (A) (A) (A) (A) (A) (A) (A) (A) (A) (A)
                 (A) (A) (A) (A) (A) (A) (A) (A) (A) (A) (A) (A)
                 (A) (A) (A) (A) (A) (A) (A) (A) (A) (A) (A) (A)
                 (A) (A) (A) (A) (A) (A) (A) (A) (A) (A) (A) (A)
                 (A) (A) (A) (A) (A) (A) (A) (A) (A) (A) (A) (A)
                 (A) (A) (A) (A) (A) (A) (A) (A) (A) (A) (A) (A)
                 (A) (A) (A) (A) (A) (A) (A) (A) (A) (A) (A) (A)
                 (A) (A) (A) (A) (A) (A) (A) (A) (A) (A) (A) (A)
                 (A) (A) (A) (A) (A) (A) (A) (A) (A) (A) (A) (A)
                 (A) (A) (A) (A) (A) (A) (A) (A) (A) (A) (A) (A)
                 (A) (A) (A) (A) (A) (A) (A) (A) (A) (A) (A) (A)
                 (A) (A) (A) (A) (A) (A) (A) (A) (A) (A) (A) (A)
                 (A) (A) (A) (A) (A) (A) (A) (A) (A) (A) (A) (A)
                 (A) (A) (A) (A) (A) (A) (A) (A) (A) (A) (A) (A)
                 (A) (A) (A) (A) (A) (A) (A) (A) (A) (A) (A) (A)
                 (A) (A) (A) (A) (A) (A) (A) (A) (A) (A) (A) (A)
                 (A) (A) (A) (A) (A) (A) (A) (A) (A) (A) (A) (A)
                 (A) (A) (A) (A) (A) (A) (A) (A) (A) (A) (A) (A)
                 (A) (A) (A) (A) (A) (A) (A) (A) (A) (A) (A) (A)
                 (A) (A) (A) (A) (A) (A) (A) (A) (A) (A) (A) (A)
                 (A) (A) (A) (A) (A) (A) (A) (A) (A) (A) (A) (A)
                 (A) (A) (A) (A) (A) (A) (A) (A) (A) (A) (A) (A)
                 (A) (A) (A) (A) (A) (A) (A) (A) (A) (A) (A) (A)
                 (A) (A) (A) (A) (A) (A) (A) (A) (A) (A) (A) (A)
                 (A) (A) (A) (A) (A) (A) (A) (A) (A) (A) (A) (A)
                 (A) (A) (A) (A) (A) (A) (A) (A) (A) (A) (A) (A)
                 (A) (A) (A) (A) (A) (A) (A) (A) (A) (A) (A) (A)
                 (A) (A) (A) (A) (A) (A) (A) (A) (A) (A) (A) (A)
                 (A) (A) (A) (A) (A) (A) (A) (A) (A) (A) (A) (A)
                 (A) (A) (A) (A) (A) (A) (A) (A) (A) (A) (A) (A)
                 (A) (A) (A) (A) (A) (A) (A) (A) (A) (A) (A) (A)
                 (A) (A) (A) (A) (A) (A) (A) (A) (A) (A) (A) (A)
                 (A) (A) (A) (A) (A) (A) (A) (A) (A) (A) (A) (A)
                 (A) (A) (A) (A) (A) (A) (A) (A) (A) (A) (A) (A)
                 (A) (A) (A) (A) (A) (A) (A) (A) (A) (A) (A) (A)
                 (A) (A) (A) (A) (A) (A) (A) (A) (A) (A) (A) (A)
                 (A) (A) (A) (A) (A) (A) (A) (A) (A) (A) (A) (A)
                 (A) (A) (A) (A) (A) (A) (A) (A) (A) (A) (A) (A)
                 (A) (A) (A) (A) (A) (A) (A) (A) (A) (A) (A) (A)
                 (A) (A) (A) (A) (A) (A) (A) (A) (A) (A) (A) (A)
                 (A) (A) (A) (A) (A) (A) (A) (A) (A) (A) (A) (A)
                 (A) (A) (A) (A) (A) (A) (A) (A) (A) (A) (A) (A)
                 (A) (A) (A) (A) (A) (A) (A) (A) (A) (A) (A) (A)
                 (A) (A) (A) (A) (A) (A) (A) (A) (A) (A) (A) (A)
                 (A) (A) (A) (A) (A) (A) (A) (A) (A) (A) (A) (A)
                 (A) (A) (A) (A) (A) (A) (A) (A) (A) (A) (A) (A)
                 (A) (A) (A) (A) (A) (A) (A) (A) (A) (A) (A) (A)
                 (A) (A) (A) (A) (A) (A) (A) (A) (A) (A) (A) (A)
                 (A) (A) (A) (A) (A) (A) (A) (A) (A) (A) (A) (A)
                 (A) (A) (A) (A) (A) (A) (A) (A) (A) (A) (A) (A)
                 (A) (A) (A) (A) (A) (A) (A) (A) (A) (A) (A) (A)
                 (A) (A) (A) (A) (A) (A) (A) (A) (A) (A) (A) (A)
                 (A) (A) (A) (A) (A) (A) (A) (A) (A) (A) (A) (A)
                 (A) (A) (A) (A) (A) (A) (A) (A) (A) (A) (A) (A)
                 (A) (A) (A) (A) (A) (A) (A) (A) (A) (A) (A) (A)
                 (A) (A) (A) (A) (A) (A) (A) (A) (A) (A) (A) (A)
                 (A) (A) (A) (A) (A) (A) (A) (A) (A) (A) (A) (A)
                 (A) (A) (A) (A) (A) (A) (A) (A) (A) (A) (A) (A)
                 (A) (A) (A) (A) (A) (A) (A) (A) (A) (A) (A) (A)
                 (A) (A) (A) (A) (A) (A) (A) (A) (A) (A) (A) (A)
                 (A) (A) (A) (A) (A) (A) (A) (A) (A) (A) (A) (A)
                 (A) (A) (A) (A) (A) (A) (A) (A) (A) (A) (A) (A)
                 (A) (A) (A) (A) (A) (A) (A) (A) (A) (A) (A) (A)
                 (A) (A) (A) (A) (A) (A) (A) (A) (A) (A) (A) (A)
                 (A) (A) (A) (A) (A) (A) (A) (A) (A) (A) (A) (A)
                 (A) (A) (A) (A) (A) (A) (A) (A) (A) (A) (A) (A)
                 (A) (A) (A) (A) (A) (A) (A) (A) (A) (A) (A) (A)
                 (A) (A) (A) (A) (A) (A) (A) (A) (A) (A) (A) (A)
                 (A) (A) (A) (A) (A) (A) (A) (A) (A) (A) (A) (A)
                 (A) (A) (A) (A) (A) (A) (A) (A) (A) (A) (A) (A)
                 (A) (A) (A) (A) (A) (A) (A) (A) (A) (A) (A) (A)
                 (A) (A) (A) (A) (A) (A) (A) (A) (A) (A) (A) (A)
                 (A) (A) (A) (A) (A) (A) (A) (A) (A) (A) (A) (A)
                 (A) (A) (A) (A) (A) (A) (A) (A) (A) (A) (A) (A)
                 (A) (A) (A) (A) (A) (A) (A) (A) (A) (A) (A) (A)
                 (A) (A) (A) (A) (A) (A) (A) (A) (A) (A) (A) (A)
                 (A) (A) (A) (A) (A) (A) (A) (A) (A) (A) (A) (A)
                 (A) (A) (A) (A) (A) (A) (A) (A) (A) (A) (A) (A)
                 (A) (A) (A) (A) (A) (A) (A) (A) (A) (A) (A) (A)
                 (A) (A) (A) (A) (A) (A) (A) (A) (A) (A) (A) (A)
                 (A) (A) (A) (A) (A) (A) (A) (A) (A) (A) (A) (A)
                 (A) (A) (A) (A) (A) (A) (A) (A) (A) (A) (A) (A)
                 (A) (A) (A) (A) (A) (A) (A) (A) (A) (A) (A) (A)
                 (A) (A) (A) (A) (A) (A) (A) (A) (A) (A) (A) (A)
                 (A) (A) (A) (A) (A) (A) (A) (A) (A) (A) (A) (A)
                 (A) (A) (A) (A) (A) (A) (A) (A) (A) (A) (A) (A)
                 (A) (A) (A) (A) (A) (A) (A) (A) (A) (A) (A) (A)
                 (A) (A) (A) (A) (A) (A) (A) (A) (A) (A) (A) (A)
                 (A) (A) (A) (A) (A) (A) (A) (A) (A) (A) (A) (A)
                 (A) (A) (A) (A) (A) (A) (A) (A) (A) (A) (A) (A)
                 (A) (A) (A) (A) (A) (A) (A) (A) (A) (A) (A) (A)
                 (A) (A) (A) (A) (A) (A) (A) (A) (A) (A) (A) (A)
                 (A) (A) (A) (A) (A) (A) (A) (A) (A) (A) (A) (A)
                 (A) (A) (A) (A) (A) (A) (A) (A) (A) (A) (A) (A)
                 (A) (A) (A) (A) (A) (A) (A) (A) (A) (A) (A) (A)
                 (A) (A) (A) (A) (A) (A) (A) (A) (A) (A) (A) (A)
                 (A) (A) (A) (A) (A) (A) (A) (A) (A) (A) (A) (A)
                 (A) (A) (A) (A) (A) (A) (A) (A) (A) (A) (A) (A)
                 (A) (A) (A) (A) (A) (A) (A) (A) (A) (A) (A) (A)
                 (A) (A) (A) (A) (A) (A) (A) (A) (A) (A) (A) (A)
                 (A) (A) (A) (A) (A) (A) (A) (A) (A) (A) (A) (A)
                 (A) (A) (A) (A) (A) (A) (A) (A) (A) (A) (A) (A)
                 (A) (A) (A) (A) (A) (A) (A) (A) (A) (A) (A) (A)
                 (A) (A) (A) (A) (A) (A) (A) (A) (A) (A) (A) (A)
                 (A) (A) (A) (A) (A) (A) (A) (A) (A) (A) (A) (A)
                 (A) (A) (A) (A) (A) (A) (A) (A) (A) (A) (A) (A)
                 (A) (A) (A) (A) (A) (A) (A) (A) (A) (A) (A) (A)
                 (A) (A) (A) (A) (A) (A) (A) (A) (A) (A) (A) (A)
                 (A) (A) (A) (A) (A) (A) (A) (A) (A) (A) (A) (A)
                 (A) (A) (A) (A) (A) (A) (A) (A) (A) (A) (A) (A)
                 (A) (A) (A) (A) (A) (A) (A) (A) (A) (A) (A) (A)
                 (A) (A) (A) (A) (A) (A) (A) (A) (A) (A) (A) (A)
                 (A) (A) (A) (A) (A) (A) (A) (A) (A) (A) (A) (A)
                 (A) (A) (A) (A) (A) (A) (A) (A) (A) (A) (A) (A)
                 (A) (A) (A) (A) (A) (A) (A) (A) (A) (A) (A) (A)
                 (A) (A) (A) (A) (A) (A) (A) (A)
 Beta  Orbitals:
       Occupied  (A) (A) (A) (A) (A) (A) (A) (A) (A) (A) (A) (A)
                 (A) (A) (A) (A) (A) (A) (A) (A) (A) (A) (A) (A)
                 (A) (A) (A) (A) (A) (A) (A) (A) (A) (A) (A) (A)
                 (A) (A) (A) (A) (A) (A) (A) (A) (A) (A) (A) (A)
                 (A) (A) (A) (A) (A) (A) (A) (A) (A) (A) (A) (A)
                 (A) (A) (A) (A) (A) (A) (A) (A) (A) (A) (A) (A)
                 (A) (A) (A) (A) (A) (A) (A) (A) (A) (A) (A) (A)
                 (A) (A) (A) (A) (A) (A) (A) (A) (A) (A) (A) (A)
                 (A) (A) (A) (A) (A) (A) (A) (A) (A) (A) (A) (A)
                 (A) (A) (A) (A) (A) (A) (A) (A) (A) (A) (A) (A)
                 (A) (A) (A) (A) (A) (A) (A) (A) (A) (A) (A) (A)
                 (A) (A) (A) (A) (A) (A) (A) (A) (A) (A) (A) (A)
                 (A) (A) (A) (A) (A) (A) (A) (A) (A) (A) (A) (A)
                 (A) (A) (A) (A) (A) (A) (A) (A) (A) (A) (A) (A)
                 (A) (A) (A) (A) (A) (A) (A) (A) (A) (A) (A) (A)
                 (A) (A) (A) (A) (A) (A) (A)
       Virtual   (A) (A) (A) (A) (A) (A) (A) (A) (A) (A) (A) (A)
                 (A) (A) (A) (A) (A) (A) (A) (A) (A) (A) (A) (A)
                 (A) (A) (A) (A) (A) (A) (A) (A) (A) (A) (A) (A)
                 (A) (A) (A) (A) (A) (A) (A) (A) (A) (A) (A) (A)
                 (A) (A) (A) (A) (A) (A) (A) (A) (A) (A) (A) (A)
                 (A) (A) (A) (A) (A) (A) (A) (A) (A) (A) (A) (A)
                 (A) (A) (A) (A) (A) (A) (A) (A) (A) (A) (A) (A)
                 (A) (A) (A) (A) (A) (A) (A) (A) (A) (A) (A) (A)
                 (A) (A) (A) (A) (A) (A) (A) (A) (A) (A) (A) (A)
                 (A) (A) (A) (A) (A) (A) (A) (A) (A) (A) (A) (A)
                 (A) (A) (A) (A) (A) (A) (A) (A) (A) (A) (A) (A)
                 (A) (A) (A) (A) (A) (A) (A) (A) (A) (A) (A) (A)
                 (A) (A) (A) (A) (A) (A) (A) (A) (A) (A) (A) (A)
                 (A) (A) (A) (A) (A) (A) (A) (A) (A) (A) (A) (A)
                 (A) (A) (A) (A) (A) (A) (A) (A) (A) (A) (A) (A)
                 (A) (A) (A) (A) (A) (A) (A) (A) (A) (A) (A) (A)
                 (A) (A) (A) (A) (A) (A) (A) (A) (A) (A) (A) (A)
                 (A) (A) (A) (A) (A) (A) (A) (A) (A) (A) (A) (A)
                 (A) (A) (A) (A) (A) (A) (A) (A) (A) (A) (A) (A)
                 (A) (A) (A) (A) (A) (A) (A) (A) (A) (A) (A) (A)
                 (A) (A) (A) (A) (A) (A) (A) (A) (A) (A) (A) (A)
                 (A) (A) (A) (A) (A) (A) (A) (A) (A) (A) (A) (A)
                 (A) (A) (A) (A) (A) (A) (A) (A) (A) (A) (A) (A)
                 (A) (A) (A) (A) (A) (A) (A) (A) (A) (A) (A) (A)
                 (A) (A) (A) (A) (A) (A) (A) (A) (A) (A) (A) (A)
                 (A) (A) (A) (A) (A) (A) (A) (A) (A) (A) (A) (A)
                 (A) (A) (A) (A) (A) (A) (A) (A) (A) (A) (A) (A)
                 (A) (A) (A) (A) (A) (A) (A) (A) (A) (A) (A) (A)
                 (A) (A) (A) (A) (A) (A) (A) (A) (A) (A) (A) (A)
                 (A) (A) (A) (A) (A) (A) (A) (A) (A) (A) (A) (A)
                 (A) (A) (A) (A) (A) (A) (A) (A) (A) (A) (A) (A)
                 (A) (A) (A) (A) (A) (A) (A) (A) (A) (A) (A) (A)
                 (A) (A) (A) (A) (A) (A) (A) (A) (A) (A) (A) (A)
                 (A) (A) (A) (A) (A) (A) (A) (A) (A) (A) (A) (A)
                 (A) (A) (A) (A) (A) (A) (A) (A) (A) (A) (A) (A)
                 (A) (A) (A) (A) (A) (A) (A) (A) (A) (A) (A) (A)
                 (A) (A) (A) (A) (A) (A) (A) (A) (A) (A) (A) (A)
                 (A) (A) (A) (A) (A) (A) (A) (A) (A) (A) (A) (A)
                 (A) (A) (A) (A) (A) (A) (A) (A) (A) (A) (A) (A)
                 (A) (A) (A) (A) (A) (A) (A) (A) (A) (A) (A) (A)
                 (A) (A) (A) (A) (A) (A) (A) (A) (A) (A) (A) (A)
                 (A) (A) (A) (A) (A) (A) (A) (A) (A) (A) (A) (A)
                 (A) (A) (A) (A) (A) (A) (A) (A) (A) (A) (A) (A)
                 (A) (A) (A) (A) (A) (A) (A) (A) (A) (A) (A) (A)
                 (A) (A) (A) (A) (A) (A) (A) (A) (A) (A) (A) (A)
                 (A) (A) (A) (A) (A) (A) (A) (A) (A) (A) (A) (A)
                 (A) (A) (A) (A) (A) (A) (A) (A) (A) (A) (A) (A)
                 (A) (A) (A) (A) (A) (A) (A) (A) (A) (A) (A) (A)
                 (A) (A) (A) (A) (A) (A) (A) (A) (A) (A) (A) (A)
                 (A) (A) (A) (A) (A) (A) (A) (A) (A) (A) (A) (A)
                 (A) (A) (A) (A) (A) (A) (A) (A) (A) (A) (A) (A)
                 (A) (A) (A) (A) (A) (A) (A) (A) (A) (A) (A) (A)
                 (A) (A) (A) (A) (A) (A) (A) (A) (A) (A) (A) (A)
                 (A) (A) (A) (A) (A) (A) (A) (A) (A) (A) (A) (A)
                 (A) (A) (A) (A) (A) (A) (A) (A) (A) (A) (A) (A)
                 (A) (A) (A) (A) (A) (A) (A) (A) (A) (A) (A) (A)
                 (A) (A) (A) (A) (A) (A) (A) (A) (A) (A) (A) (A)
                 (A) (A) (A) (A) (A) (A) (A) (A) (A) (A) (A) (A)
                 (A) (A) (A) (A) (A) (A) (A) (A) (A) (A) (A) (A)
                 (A) (A) (A) (A) (A) (A) (A) (A) (A) (A) (A) (A)
                 (A) (A) (A) (A) (A) (A) (A) (A) (A) (A) (A) (A)
                 (A) (A) (A) (A) (A) (A) (A) (A) (A) (A) (A) (A)
                 (A) (A) (A) (A) (A) (A) (A) (A) (A) (A) (A) (A)
                 (A) (A) (A) (A) (A) (A) (A) (A) (A) (A) (A) (A)
                 (A) (A) (A) (A) (A) (A) (A) (A) (A) (A) (A) (A)
                 (A) (A) (A) (A) (A) (A) (A) (A) (A) (A) (A) (A)
                 (A) (A) (A) (A) (A) (A) (A) (A) (A) (A) (A) (A)
                 (A) (A) (A) (A) (A) (A) (A) (A) (A) (A) (A) (A)
                 (A) (A) (A) (A) (A) (A) (A) (A) (A) (A) (A) (A)
                 (A) (A) (A) (A) (A) (A) (A) (A) (A) (A) (A) (A)
                 (A) (A) (A) (A) (A) (A) (A) (A) (A) (A) (A) (A)
                 (A) (A) (A) (A) (A) (A) (A) (A) (A) (A) (A) (A)
                 (A) (A) (A) (A) (A) (A) (A) (A) (A) (A) (A) (A)
                 (A) (A) (A) (A) (A) (A) (A) (A) (A) (A) (A) (A)
                 (A) (A) (A) (A) (A) (A) (A) (A) (A) (A) (A) (A)
                 (A) (A) (A) (A) (A) (A) (A) (A) (A) (A) (A) (A)
                 (A) (A) (A) (A) (A) (A) (A) (A) (A) (A) (A) (A)
                 (A) (A) (A) (A) (A) (A) (A) (A) (A) (A) (A) (A)
                 (A) (A) (A) (A) (A) (A) (A) (A) (A) (A) (A) (A)
                 (A) (A) (A) (A) (A) (A) (A) (A) (A) (A) (A) (A)
                 (A) (A) (A) (A) (A) (A) (A) (A) (A) (A) (A) (A)
                 (A) (A) (A) (A) (A) (A) (A) (A) (A) (A) (A) (A)
                 (A) (A) (A) (A) (A) (A) (A) (A) (A) (A) (A) (A)
                 (A) (A) (A) (A) (A) (A) (A) (A) (A) (A) (A) (A)
                 (A) (A) (A) (A) (A) (A) (A) (A) (A) (A) (A) (A)
                 (A) (A) (A) (A) (A) (A) (A) (A) (A) (A) (A) (A)
                 (A) (A) (A) (A) (A) (A) (A) (A) (A) (A) (A) (A)
                 (A) (A) (A) (A) (A) (A) (A) (A) (A) (A) (A) (A)
                 (A) (A) (A) (A) (A) (A) (A) (A) (A) (A) (A) (A)
                 (A) (A) (A) (A) (A) (A) (A) (A) (A) (A) (A) (A)
                 (A) (A) (A) (A) (A) (A) (A) (A) (A) (A) (A) (A)
                 (A) (A) (A) (A) (A) (A) (A) (A) (A) (A) (A) (A)
                 (A) (A) (A) (A) (A) (A) (A) (A) (A) (A) (A) (A)
                 (A) (A) (A) (A) (A) (A) (A) (A) (A) (A) (A) (A)
                 (A) (A) (A) (A) (A) (A) (A) (A) (A) (A) (A) (A)
                 (A) (A) (A) (A) (A) (A) (A) (A) (A) (A) (A) (A)
                 (A) (A) (A) (A) (A) (A) (A) (A) (A) (A) (A) (A)
                 (A) (A) (A) (A) (A) (A) (A) (A) (A) (A) (A) (A)
                 (A) (A) (A) (A) (A) (A) (A) (A) (A) (A) (A) (A)
                 (A) (A) (A) (A) (A) (A) (A) (A) (A) (A) (A) (A)
                 (A) (A) (A) (A) (A) (A) (A) (A) (A) (A) (A) (A)
                 (A) (A) (A) (A) (A) (A) (A) (A) (A) (A) (A) (A)
                 (A) (A) (A) (A) (A) (A) (A) (A) (A) (A) (A) (A)
                 (A) (A) (A) (A) (A) (A) (A) (A) (A) (A) (A) (A)
                 (A) (A) (A) (A) (A) (A) (A) (A) (A) (A) (A) (A)
                 (A) (A) (A) (A) (A) (A) (A) (A) (A) (A) (A) (A)
                 (A) (A) (A) (A) (A) (A) (A) (A) (A) (A) (A) (A)
                 (A) (A) (A) (A) (A) (A) (A) (A) (A) (A) (A) (A)
                 (A) (A) (A) (A) (A) (A) (A) (A) (A) (A) (A) (A)
                 (A) (A) (A) (A) (A) (A) (A) (A) (A) (A) (A) (A)
                 (A) (A) (A) (A) (A) (A) (A) (A) (A) (A) (A) (A)
                 (A) (A) (A) (A) (A) (A) (A) (A) (A) (A) (A) (A)
                 (A) (A) (A) (A) (A) (A) (A) (A) (A) (A) (A) (A)
                 (A) (A) (A) (A) (A) (A) (A) (A) (A) (A) (A) (A)
                 (A) (A) (A) (A) (A) (A) (A) (A) (A) (A) (A) (A)
                 (A) (A) (A) (A) (A) (A) (A) (A) (A) (A) (A) (A)
                 (A) (A) (A) (A) (A) (A) (A) (A) (A) (A) (A) (A)
                 (A) (A) (A) (A) (A) (A) (A) (A) (A) (A) (A) (A)
                 (A) (A) (A) (A) (A) (A) (A) (A) (A) (A) (A) (A)
                 (A) (A) (A) (A) (A) (A) (A) (A) (A) (A) (A) (A)
                 (A) (A) (A) (A) (A) (A) (A) (A) (A) (A) (A) (A)
                 (A) (A) (A) (A) (A) (A) (A) (A) (A) (A) (A) (A)
                 (A) (A) (A) (A) (A) (A) (A) (A) (A) (A) (A) (A)
                 (A) (A) (A) (A) (A) (A) (A) (A) (A) (A) (A) (A)
                 (A) (A) (A) (A) (A) (A) (A) (A) (A) (A) (A) (A)
                 (A) (A) (A) (A) (A) (A) (A) (A) (A) (A) (A) (A)
                 (A) (A) (A) (A) (A) (A) (A) (A) (A) (A) (A) (A)
                 (A) (A) (A) (A) (A) (A) (A) (A) (A) (A) (A) (A)
                 (A) (A) (A) (A) (A) (A) (A) (A) (A) (A) (A) (A)
                 (A) (A) (A) (A) (A) (A) (A) (A) (A) (A) (A) (A)
                 (A) (A) (A) (A) (A) (A) (A) (A) (A) (A) (A) (A)
                 (A) (A) (A) (A) (A) (A) (A) (A) (A) (A) (A) (A)
                 (A) (A) (A) (A) (A) (A) (A) (A) (A) (A) (A) (A)
                 (A) (A) (A) (A) (A) (A) (A) (A) (A) (A) (A) (A)
                 (A) (A) (A) (A) (A) (A) (A) (A) (A)
 The electronic state is 2-A.
 Alpha  occ. eigenvalues -- -256.43956 -30.20577 -26.03559 -26.03041 -26.02883
 Alpha  occ. eigenvalues --  -19.33594 -19.32689 -19.30664 -19.26415 -19.23408
 Alpha  occ. eigenvalues --  -14.54335 -14.49819 -14.49308 -14.48424 -14.48312
 Alpha  occ. eigenvalues --  -14.47303 -10.43318 -10.41539 -10.40197 -10.38141
 Alpha  occ. eigenvalues --  -10.36860 -10.36655 -10.36376 -10.35941 -10.35750
 Alpha  occ. eigenvalues --  -10.35654 -10.35494 -10.35374 -10.35317 -10.35022
 Alpha  occ. eigenvalues --  -10.34901 -10.34744 -10.33308 -10.32687 -10.32641
 Alpha  occ. eigenvalues --  -10.32557 -10.32307 -10.32287 -10.32174 -10.31927
 Alpha  occ. eigenvalues --  -10.31910 -10.31899 -10.31839 -10.31792 -10.31760
 Alpha  occ. eigenvalues --  -10.31670 -10.31449 -10.31265 -10.30683 -10.30682
 Alpha  occ. eigenvalues --  -10.30588 -10.30070 -10.30019 -10.29322  -3.55892
 Alpha  occ. eigenvalues --   -2.32986  -2.31024  -2.30571  -1.23891  -1.23029
 Alpha  occ. eigenvalues --   -1.16443  -1.15073  -1.11246  -1.10397  -1.08287
 Alpha  occ. eigenvalues --   -1.07868  -1.07835  -1.06976  -1.00653  -0.97281
 Alpha  occ. eigenvalues --   -0.94592  -0.93488  -0.92779  -0.92461  -0.92302
 Alpha  occ. eigenvalues --   -0.91464  -0.90836  -0.90731  -0.88519  -0.87706
 Alpha  occ. eigenvalues --   -0.86414  -0.86229  -0.84758  -0.83132  -0.82160
 Alpha  occ. eigenvalues --   -0.81891  -0.81381  -0.79803  -0.78561  -0.77457
 Alpha  occ. eigenvalues --   -0.76847  -0.76106  -0.74936  -0.74433  -0.74234
 Alpha  occ. eigenvalues --   -0.73471  -0.72161  -0.70317  -0.70088  -0.69131
 Alpha  occ. eigenvalues --   -0.68514  -0.67077  -0.66482  -0.66170  -0.65585
 Alpha  occ. eigenvalues --   -0.64366  -0.63024  -0.62534  -0.62398  -0.61396
 Alpha  occ. eigenvalues --   -0.60615  -0.59653  -0.59371  -0.59267  -0.58377
 Alpha  occ. eigenvalues --   -0.57972  -0.57867  -0.57525  -0.57477  -0.57176
 Alpha  occ. eigenvalues --   -0.56425  -0.56191  -0.56118  -0.55740  -0.55372
 Alpha  occ. eigenvalues --   -0.55140  -0.55003  -0.54454  -0.54260  -0.53977
 Alpha  occ. eigenvalues --   -0.53505  -0.53446  -0.53107  -0.52574  -0.52398
 Alpha  occ. eigenvalues --   -0.52247  -0.52065  -0.51949  -0.51778  -0.51552
 Alpha  occ. eigenvalues --   -0.51340  -0.51080  -0.51036  -0.50427  -0.50326
 Alpha  occ. eigenvalues --   -0.50260  -0.50048  -0.49683  -0.49443  -0.49068
 Alpha  occ. eigenvalues --   -0.48870  -0.48136  -0.47899  -0.47619  -0.47162
 Alpha  occ. eigenvalues --   -0.47001  -0.46365  -0.46219  -0.45632  -0.45428
 Alpha  occ. eigenvalues --   -0.45072  -0.44347  -0.43592  -0.43511  -0.43197
 Alpha  occ. eigenvalues --   -0.43130  -0.42583  -0.42015  -0.41692  -0.41283
 Alpha  occ. eigenvalues --   -0.40500  -0.40119  -0.39079  -0.38383  -0.38242
 Alpha  occ. eigenvalues --   -0.37053  -0.36223  -0.35990  -0.35074  -0.35026
 Alpha  occ. eigenvalues --   -0.34185  -0.33498  -0.32991  -0.32591  -0.32017
 Alpha  occ. eigenvalues --   -0.31087  -0.30166  -0.29914
 Alpha virt. eigenvalues --   -0.23630  -0.17236  -0.16998  -0.14233  -0.11734
 Alpha virt. eigenvalues --   -0.09737  -0.09289  -0.07642  -0.07471  -0.06957
 Alpha virt. eigenvalues --   -0.06701  -0.05491  -0.05411  -0.04753  -0.04583
 Alpha virt. eigenvalues --   -0.04081  -0.03953  -0.03302  -0.03039  -0.02704
 Alpha virt. eigenvalues --   -0.01942  -0.01864  -0.01459  -0.01123  -0.01087
 Alpha virt. eigenvalues --   -0.00715  -0.00590  -0.00284   0.00560   0.00873
 Alpha virt. eigenvalues --    0.01273   0.01395   0.01565   0.01766   0.02015
 Alpha virt. eigenvalues --    0.02271   0.02941   0.03031   0.03186   0.03650
 Alpha virt. eigenvalues --    0.03882   0.04202   0.04383   0.04473   0.04575
 Alpha virt. eigenvalues --    0.04664   0.05003   0.05068   0.05216   0.05473
 Alpha virt. eigenvalues --    0.05714   0.05889   0.06084   0.06101   0.06443
 Alpha virt. eigenvalues --    0.06613   0.06743   0.07158   0.07420   0.07570
 Alpha virt. eigenvalues --    0.07858   0.07992   0.08052   0.08349   0.08555
 Alpha virt. eigenvalues --    0.08855   0.09486   0.09759   0.10010   0.10157
 Alpha virt. eigenvalues --    0.10417   0.10582   0.10719   0.10965   0.11231
 Alpha virt. eigenvalues --    0.11465   0.11572   0.11760   0.12127   0.12268
 Alpha virt. eigenvalues --    0.12403   0.12671   0.12702   0.12910   0.13100
 Alpha virt. eigenvalues --    0.13210   0.13645   0.14151   0.14212   0.14384
 Alpha virt. eigenvalues --    0.14586   0.14814   0.15132   0.15207   0.15621
 Alpha virt. eigenvalues --    0.15676   0.16015   0.16318   0.16376   0.16523
 Alpha virt. eigenvalues --    0.16663   0.17048   0.17083   0.17549   0.17670
 Alpha virt. eigenvalues --    0.17932   0.18032   0.18356   0.18570   0.18689
 Alpha virt. eigenvalues --    0.18917   0.18988   0.19529   0.19889   0.20009
 Alpha virt. eigenvalues --    0.20114   0.20574   0.20849   0.20909   0.21208
 Alpha virt. eigenvalues --    0.21530   0.21634   0.22108   0.22362   0.22539
 Alpha virt. eigenvalues --    0.22700   0.22837   0.22934   0.23041   0.23501
 Alpha virt. eigenvalues --    0.23825   0.24168   0.24418   0.24809   0.25024
 Alpha virt. eigenvalues --    0.25274   0.25449   0.25703   0.25749   0.26098
 Alpha virt. eigenvalues --    0.26310   0.26598   0.26750   0.27108   0.27358
 Alpha virt. eigenvalues --    0.27432   0.27799   0.27965   0.28067   0.28400
 Alpha virt. eigenvalues --    0.28778   0.28966   0.29126   0.29328   0.29455
 Alpha virt. eigenvalues --    0.29633   0.29935   0.30209   0.30587   0.30771
 Alpha virt. eigenvalues --    0.31008   0.31124   0.31323   0.31600   0.31837
 Alpha virt. eigenvalues --    0.32143   0.32565   0.32657   0.32733   0.32919
 Alpha virt. eigenvalues --    0.33011   0.33143   0.33393   0.33570   0.33786
 Alpha virt. eigenvalues --    0.33966   0.34045   0.34441   0.34623   0.34779
 Alpha virt. eigenvalues --    0.35061   0.35179   0.35463   0.35725   0.35773
 Alpha virt. eigenvalues --    0.35876   0.36057   0.36516   0.36672   0.36835
 Alpha virt. eigenvalues --    0.37081   0.37090   0.37340   0.37545   0.37789
 Alpha virt. eigenvalues --    0.37907   0.38231   0.38438   0.38522   0.38749
 Alpha virt. eigenvalues --    0.38940   0.39266   0.39349   0.39479   0.39628
 Alpha virt. eigenvalues --    0.39650   0.39762   0.40008   0.40140   0.40294
 Alpha virt. eigenvalues --    0.40327   0.40812   0.40893   0.41322   0.41434
 Alpha virt. eigenvalues --    0.41508   0.41967   0.42054   0.42423   0.42469
 Alpha virt. eigenvalues --    0.42747   0.42917   0.42984   0.43131   0.43324
 Alpha virt. eigenvalues --    0.43607   0.43680   0.43993   0.44342   0.44566
 Alpha virt. eigenvalues --    0.44727   0.44886   0.45135   0.45268   0.45419
 Alpha virt. eigenvalues --    0.45852   0.46043   0.46195   0.46418   0.46688
 Alpha virt. eigenvalues --    0.46905   0.47205   0.47619   0.47795   0.48062
 Alpha virt. eigenvalues --    0.48130   0.48298   0.48496   0.48720   0.49009
 Alpha virt. eigenvalues --    0.49309   0.49413   0.49671   0.50108   0.50507
 Alpha virt. eigenvalues --    0.50672   0.51167   0.51227   0.51533   0.51567
 Alpha virt. eigenvalues --    0.51779   0.51936   0.52259   0.52368   0.52799
 Alpha virt. eigenvalues --    0.53062   0.53167   0.53252   0.53728   0.53897
 Alpha virt. eigenvalues --    0.54063   0.54355   0.54864   0.54915   0.55095
 Alpha virt. eigenvalues --    0.55255   0.55691   0.55833   0.56006   0.56305
 Alpha virt. eigenvalues --    0.56479   0.56903   0.57117   0.57367   0.57504
 Alpha virt. eigenvalues --    0.57933   0.58068   0.58269   0.58558   0.58716
 Alpha virt. eigenvalues --    0.58976   0.59056   0.59706   0.59826   0.59979
 Alpha virt. eigenvalues --    0.60215   0.60810   0.61051   0.61361   0.61510
 Alpha virt. eigenvalues --    0.61929   0.62310   0.62346   0.62658   0.62906
 Alpha virt. eigenvalues --    0.62996   0.63375   0.63590   0.64032   0.64146
 Alpha virt. eigenvalues --    0.64247   0.64823   0.65189   0.65612   0.65955
 Alpha virt. eigenvalues --    0.66063   0.66572   0.66656   0.67029   0.67625
 Alpha virt. eigenvalues --    0.67899   0.68288   0.68393   0.68862   0.69058
 Alpha virt. eigenvalues --    0.69152   0.69814   0.70123   0.70367   0.70501
 Alpha virt. eigenvalues --    0.70791   0.71047   0.71454   0.71569   0.72322
 Alpha virt. eigenvalues --    0.72400   0.72864   0.73094   0.73411   0.73581
 Alpha virt. eigenvalues --    0.73948   0.74212   0.74523   0.74820   0.74943
 Alpha virt. eigenvalues --    0.75263   0.75520   0.75738   0.76102   0.76718
 Alpha virt. eigenvalues --    0.77127   0.77334   0.77714   0.78036   0.78367
 Alpha virt. eigenvalues --    0.78542   0.78863   0.78890   0.79240   0.79569
 Alpha virt. eigenvalues --    0.79966   0.80366   0.80624   0.81077   0.81222
 Alpha virt. eigenvalues --    0.81717   0.82031   0.82273   0.82423   0.82637
 Alpha virt. eigenvalues --    0.83192   0.83825   0.83994   0.84109   0.84363
 Alpha virt. eigenvalues --    0.84638   0.84830   0.85293   0.85492   0.85703
 Alpha virt. eigenvalues --    0.85928   0.86209   0.86465   0.86865   0.87147
 Alpha virt. eigenvalues --    0.87610   0.87857   0.88091   0.88162   0.88191
 Alpha virt. eigenvalues --    0.88851   0.88918   0.89088   0.89393   0.89669
 Alpha virt. eigenvalues --    0.90058   0.90278   0.90462   0.91021   0.91270
 Alpha virt. eigenvalues --    0.91626   0.91786   0.92330   0.92498   0.92803
 Alpha virt. eigenvalues --    0.93450   0.93492   0.93754   0.93849   0.94440
 Alpha virt. eigenvalues --    0.94955   0.95286   0.95583   0.95763   0.96299
 Alpha virt. eigenvalues --    0.96775   0.96857   0.97187   0.97913   0.97999
 Alpha virt. eigenvalues --    0.98124   0.98675   0.99145   0.99542   0.99592
 Alpha virt. eigenvalues --    0.99809   1.00187   1.00767   1.01028   1.01165
 Alpha virt. eigenvalues --    1.01401   1.01456   1.01882   1.02439   1.03014
 Alpha virt. eigenvalues --    1.03100   1.03433   1.03888   1.04168   1.04878
 Alpha virt. eigenvalues --    1.05191   1.05367   1.06199   1.06311   1.06370
 Alpha virt. eigenvalues --    1.06650   1.06977   1.07774   1.07933   1.08033
 Alpha virt. eigenvalues --    1.08462   1.09158   1.09235   1.09406   1.09732
 Alpha virt. eigenvalues --    1.10260   1.10920   1.11304   1.11673   1.11780
 Alpha virt. eigenvalues --    1.12185   1.12798   1.12913   1.13232   1.13458
 Alpha virt. eigenvalues --    1.13789   1.14294   1.14543   1.14953   1.15443
 Alpha virt. eigenvalues --    1.16028   1.16542   1.16597   1.16791   1.17180
 Alpha virt. eigenvalues --    1.17723   1.18163   1.18533   1.18708   1.18978
 Alpha virt. eigenvalues --    1.19405   1.19795   1.20571   1.20723   1.21369
 Alpha virt. eigenvalues --    1.21589   1.21887   1.22231   1.22290   1.22824
 Alpha virt. eigenvalues --    1.23274   1.23646   1.24130   1.24485   1.24835
 Alpha virt. eigenvalues --    1.25534   1.26020   1.26228   1.26718   1.26919
 Alpha virt. eigenvalues --    1.27271   1.27674   1.28021   1.28133   1.28896
 Alpha virt. eigenvalues --    1.29287   1.29541   1.30163   1.30257   1.30700
 Alpha virt. eigenvalues --    1.31289   1.32085   1.32284   1.32402   1.32647
 Alpha virt. eigenvalues --    1.33224   1.33462   1.34486   1.34735   1.34969
 Alpha virt. eigenvalues --    1.35462   1.36092   1.36661   1.37405   1.37687
 Alpha virt. eigenvalues --    1.37866   1.37975   1.38142   1.38726   1.38916
 Alpha virt. eigenvalues --    1.39387   1.39604   1.39973   1.40028   1.40602
 Alpha virt. eigenvalues --    1.40819   1.41154   1.41584   1.41697   1.41752
 Alpha virt. eigenvalues --    1.42716   1.42865   1.43148   1.43455   1.43503
 Alpha virt. eigenvalues --    1.44240   1.44304   1.44558   1.44813   1.45061
 Alpha virt. eigenvalues --    1.45590   1.45742   1.46110   1.46198   1.46507
 Alpha virt. eigenvalues --    1.46592   1.46675   1.47109   1.47180   1.47492
 Alpha virt. eigenvalues --    1.47970   1.48347   1.48874   1.49146   1.49278
 Alpha virt. eigenvalues --    1.49353   1.49475   1.50177   1.50365   1.51046
 Alpha virt. eigenvalues --    1.51288   1.51337   1.51561   1.52014   1.52135
 Alpha virt. eigenvalues --    1.52289   1.52692   1.53019   1.53285   1.53391
 Alpha virt. eigenvalues --    1.53848   1.54061   1.54247   1.54467   1.54573
 Alpha virt. eigenvalues --    1.55003   1.55108   1.55568   1.55766   1.55898
 Alpha virt. eigenvalues --    1.56235   1.56436   1.56687   1.56862   1.57168
 Alpha virt. eigenvalues --    1.57520   1.57721   1.58054   1.58445   1.58858
 Alpha virt. eigenvalues --    1.59144   1.59517   1.59545   1.59939   1.60432
 Alpha virt. eigenvalues --    1.61058   1.61325   1.61725   1.62189   1.62723
 Alpha virt. eigenvalues --    1.62765   1.63009   1.63557   1.63721   1.63835
 Alpha virt. eigenvalues --    1.64250   1.64586   1.64906   1.65137   1.65370
 Alpha virt. eigenvalues --    1.65816   1.66015   1.66133   1.66869   1.67060
 Alpha virt. eigenvalues --    1.67220   1.68128   1.68250   1.68585   1.69006
 Alpha virt. eigenvalues --    1.69494   1.69980   1.70284   1.71107   1.71382
 Alpha virt. eigenvalues --    1.72023   1.72114   1.72574   1.73018   1.73372
 Alpha virt. eigenvalues --    1.73996   1.74205   1.74808   1.75282   1.75513
 Alpha virt. eigenvalues --    1.75774   1.76044   1.76691   1.76933   1.77012
 Alpha virt. eigenvalues --    1.77150   1.77261   1.77858   1.78286   1.78561
 Alpha virt. eigenvalues --    1.78738   1.79147   1.79859   1.79983   1.80634
 Alpha virt. eigenvalues --    1.81102   1.81485   1.81918   1.82159   1.82493
 Alpha virt. eigenvalues --    1.83002   1.83268   1.83670   1.84105   1.84636
 Alpha virt. eigenvalues --    1.84874   1.85427   1.85804   1.86087   1.86372
 Alpha virt. eigenvalues --    1.86652   1.86974   1.87441   1.87892   1.88104
 Alpha virt. eigenvalues --    1.88867   1.89007   1.89268   1.89943   1.90225
 Alpha virt. eigenvalues --    1.90400   1.90655   1.91050   1.91397   1.91629
 Alpha virt. eigenvalues --    1.92340   1.92587   1.92780   1.93366   1.93719
 Alpha virt. eigenvalues --    1.94168   1.94693   1.94844   1.95088   1.95682
 Alpha virt. eigenvalues --    1.96574   1.96667   1.96987   1.97392   1.97548
 Alpha virt. eigenvalues --    1.98234   1.98605   1.98734   1.98916   1.99412
 Alpha virt. eigenvalues --    1.99572   2.00243   2.00459   2.00927   2.01031
 Alpha virt. eigenvalues --    2.01769   2.02364   2.02454   2.02977   2.03267
 Alpha virt. eigenvalues --    2.04017   2.04070   2.04427   2.04491   2.04961
 Alpha virt. eigenvalues --    2.05306   2.05872   2.06725   2.06971   2.07144
 Alpha virt. eigenvalues --    2.07615   2.08175   2.08380   2.08787   2.08942
 Alpha virt. eigenvalues --    2.09565   2.09963   2.10345   2.10815   2.11237
 Alpha virt. eigenvalues --    2.11613   2.11755   2.12132   2.12818   2.13041
 Alpha virt. eigenvalues --    2.13353   2.13894   2.14110   2.14471   2.14956
 Alpha virt. eigenvalues --    2.15322   2.15492   2.15855   2.16063   2.16359
 Alpha virt. eigenvalues --    2.17220   2.17767   2.18192   2.18435   2.18772
 Alpha virt. eigenvalues --    2.19065   2.19245   2.19541   2.20110   2.20519
 Alpha virt. eigenvalues --    2.20645   2.21199   2.21830   2.22179   2.22391
 Alpha virt. eigenvalues --    2.22718   2.22901   2.23170   2.24044   2.24508
 Alpha virt. eigenvalues --    2.24631   2.24907   2.25697   2.26121   2.26414
 Alpha virt. eigenvalues --    2.26877   2.27201   2.27561   2.28120   2.28903
 Alpha virt. eigenvalues --    2.29109   2.29629   2.29773   2.30047   2.30396
 Alpha virt. eigenvalues --    2.30811   2.30967   2.31315   2.31715   2.31992
 Alpha virt. eigenvalues --    2.32419   2.32875   2.33508   2.33728   2.33987
 Alpha virt. eigenvalues --    2.34564   2.34611   2.34891   2.35450   2.35968
 Alpha virt. eigenvalues --    2.36147   2.36275   2.37064   2.37455   2.37852
 Alpha virt. eigenvalues --    2.38354   2.38540   2.39087   2.39452   2.40004
 Alpha virt. eigenvalues --    2.40115   2.40577   2.41197   2.42082   2.42191
 Alpha virt. eigenvalues --    2.43127   2.43431   2.43741   2.43856   2.44821
 Alpha virt. eigenvalues --    2.45015   2.45352   2.45716   2.46193   2.46364
 Alpha virt. eigenvalues --    2.46666   2.46926   2.47327   2.47662   2.47825
 Alpha virt. eigenvalues --    2.48120   2.48309   2.48726   2.48985   2.49380
 Alpha virt. eigenvalues --    2.49411   2.49806   2.50307   2.50551   2.50787
 Alpha virt. eigenvalues --    2.50966   2.51557   2.51711   2.52179   2.52296
 Alpha virt. eigenvalues --    2.52686   2.52999   2.53167   2.53595   2.54178
 Alpha virt. eigenvalues --    2.54749   2.54971   2.55168   2.55453   2.56264
 Alpha virt. eigenvalues --    2.56286   2.56693   2.56948   2.57310   2.57471
 Alpha virt. eigenvalues --    2.57537   2.58197   2.58354   2.59167   2.59485
 Alpha virt. eigenvalues --    2.59615   2.60045   2.60492   2.60875   2.61353
 Alpha virt. eigenvalues --    2.61691   2.62116   2.62594   2.62729   2.63211
 Alpha virt. eigenvalues --    2.63503   2.63890   2.64250   2.64559   2.64809
 Alpha virt. eigenvalues --    2.64968   2.65477   2.65730   2.65781   2.66151
 Alpha virt. eigenvalues --    2.66355   2.67009   2.67151   2.68122   2.68343
 Alpha virt. eigenvalues --    2.68729   2.68971   2.69260   2.69627   2.70151
 Alpha virt. eigenvalues --    2.70248   2.70792   2.71012   2.71366   2.71543
 Alpha virt. eigenvalues --    2.71891   2.72037   2.72116   2.72751   2.73108
 Alpha virt. eigenvalues --    2.73349   2.73824   2.74543   2.75060   2.75344
 Alpha virt. eigenvalues --    2.75536   2.76011   2.76074   2.76958   2.77290
 Alpha virt. eigenvalues --    2.77463   2.77695   2.78061   2.78276   2.78629
 Alpha virt. eigenvalues --    2.78899   2.79106   2.79421   2.79674   2.79868
 Alpha virt. eigenvalues --    2.80598   2.81034   2.81201   2.81445   2.82034
 Alpha virt. eigenvalues --    2.82195   2.82399   2.82813   2.83165   2.83562
 Alpha virt. eigenvalues --    2.83790   2.84154   2.84417   2.84772   2.85125
 Alpha virt. eigenvalues --    2.85369   2.85513   2.85753   2.86148   2.86554
 Alpha virt. eigenvalues --    2.86896   2.87155   2.87406   2.87677   2.88437
 Alpha virt. eigenvalues --    2.88744   2.88955   2.89324   2.89629   2.89823
 Alpha virt. eigenvalues --    2.90300   2.90620   2.90984   2.91325   2.91406
 Alpha virt. eigenvalues --    2.91600   2.92097   2.92337   2.92706   2.93093
 Alpha virt. eigenvalues --    2.93193   2.93395   2.94156   2.94310   2.94699
 Alpha virt. eigenvalues --    2.95014   2.95318   2.95516   2.95812   2.95966
 Alpha virt. eigenvalues --    2.96702   2.96932   2.97356   2.97414   2.97837
 Alpha virt. eigenvalues --    2.98193   2.98675   2.98870   2.99251   2.99554
 Alpha virt. eigenvalues --    2.99699   3.00144   3.00461   3.00570   3.00637
 Alpha virt. eigenvalues --    3.00959   3.01204   3.01783   3.02372   3.02439
 Alpha virt. eigenvalues --    3.02703   3.02955   3.03205   3.03338   3.03643
 Alpha virt. eigenvalues --    3.03809   3.04117   3.04400   3.05097   3.05334
 Alpha virt. eigenvalues --    3.05776   3.06301   3.06444   3.06729   3.06959
 Alpha virt. eigenvalues --    3.07033   3.07362   3.07655   3.08012   3.08135
 Alpha virt. eigenvalues --    3.08698   3.08867   3.09278   3.09455   3.09739
 Alpha virt. eigenvalues --    3.10247   3.10466   3.10641   3.10817   3.11537
 Alpha virt. eigenvalues --    3.11621   3.11954   3.12112   3.12413   3.12761
 Alpha virt. eigenvalues --    3.13110   3.13225   3.13697   3.13711   3.14201
 Alpha virt. eigenvalues --    3.14469   3.14941   3.15124   3.15494   3.15834
 Alpha virt. eigenvalues --    3.16088   3.16176   3.16410   3.16685   3.16980
 Alpha virt. eigenvalues --    3.17433   3.17705   3.17769   3.18123   3.18397
 Alpha virt. eigenvalues --    3.18767   3.19077   3.19220   3.19424   3.19601
 Alpha virt. eigenvalues --    3.19891   3.20212   3.20246   3.20675   3.20964
 Alpha virt. eigenvalues --    3.21256   3.21395   3.21795   3.22348   3.22504
 Alpha virt. eigenvalues --    3.22795   3.22996   3.23125   3.23439   3.23771
 Alpha virt. eigenvalues --    3.23969   3.24239   3.24564   3.24768   3.25018
 Alpha virt. eigenvalues --    3.25512   3.25705   3.25857   3.26136   3.26520
 Alpha virt. eigenvalues --    3.26685   3.27188   3.27310   3.27998   3.28070
 Alpha virt. eigenvalues --    3.28288   3.28368   3.28520   3.28907   3.29309
 Alpha virt. eigenvalues --    3.29432   3.29986   3.30189   3.30315   3.30523
 Alpha virt. eigenvalues --    3.31097   3.31214   3.31362   3.31786   3.31898
 Alpha virt. eigenvalues --    3.32272   3.32577   3.32650   3.32912   3.33203
 Alpha virt. eigenvalues --    3.33256   3.33675   3.34058   3.34397   3.34852
 Alpha virt. eigenvalues --    3.35225   3.35854   3.36075   3.36303   3.36723
 Alpha virt. eigenvalues --    3.36980   3.37446   3.37994   3.38270   3.38470
 Alpha virt. eigenvalues --    3.38542   3.39095   3.39188   3.39533   3.39790
 Alpha virt. eigenvalues --    3.40137   3.40901   3.41170   3.41408   3.41703
 Alpha virt. eigenvalues --    3.42181   3.42507   3.42809   3.43106   3.43898
 Alpha virt. eigenvalues --    3.44274   3.44563   3.44803   3.45352   3.45574
 Alpha virt. eigenvalues --    3.46058   3.46117   3.46339   3.46831   3.47310
 Alpha virt. eigenvalues --    3.47394   3.47985   3.48408   3.48582   3.49189
 Alpha virt. eigenvalues --    3.49398   3.49748   3.50358   3.50516   3.51108
 Alpha virt. eigenvalues --    3.51213   3.51463   3.51826   3.51982   3.52466
 Alpha virt. eigenvalues --    3.52822   3.53255   3.53505   3.53909   3.54449
 Alpha virt. eigenvalues --    3.55132   3.55236   3.55487   3.56134   3.56528
 Alpha virt. eigenvalues --    3.56997   3.57301   3.57881   3.58097   3.58674
 Alpha virt. eigenvalues --    3.58797   3.59127   3.59564   3.59893   3.60580
 Alpha virt. eigenvalues --    3.60700   3.61097   3.61643   3.61847   3.62799
 Alpha virt. eigenvalues --    3.63216   3.63624   3.63854   3.64640   3.64729
 Alpha virt. eigenvalues --    3.64880   3.65415   3.65588   3.65888   3.66441
 Alpha virt. eigenvalues --    3.66628   3.66883   3.67314   3.67576   3.67954
 Alpha virt. eigenvalues --    3.68517   3.68832   3.69380   3.70177   3.70515
 Alpha virt. eigenvalues --    3.70624   3.71168   3.71468   3.72539   3.73003
 Alpha virt. eigenvalues --    3.73167   3.74866   3.75238   3.75449   3.75538
 Alpha virt. eigenvalues --    3.76126   3.76477   3.76683   3.77185   3.77226
 Alpha virt. eigenvalues --    3.78488   3.79118   3.79509   3.80216   3.80720
 Alpha virt. eigenvalues --    3.81313   3.82093   3.82331   3.83420   3.83778
 Alpha virt. eigenvalues --    3.84372   3.84692   3.85141   3.85444   3.85683
 Alpha virt. eigenvalues --    3.86201   3.86458   3.87410   3.88096   3.88425
 Alpha virt. eigenvalues --    3.88766   3.89595   3.89838   3.90518   3.90698
 Alpha virt. eigenvalues --    3.91732   3.92098   3.92908   3.93364   3.93655
 Alpha virt. eigenvalues --    3.94131   3.94630   3.95279   3.95518   3.95624
 Alpha virt. eigenvalues --    3.96415   3.96973   3.97565   3.97812   3.98302
 Alpha virt. eigenvalues --    3.98764   3.99310   3.99636   4.00137   4.00714
 Alpha virt. eigenvalues --    4.02381   4.02624   4.02941   4.04126   4.04632
 Alpha virt. eigenvalues --    4.04930   4.05351   4.06003   4.06375   4.06535
 Alpha virt. eigenvalues --    4.07340   4.07850   4.08028   4.08242   4.08798
 Alpha virt. eigenvalues --    4.09554   4.09965   4.10234   4.10877   4.11554
 Alpha virt. eigenvalues --    4.12153   4.12254   4.12614   4.13404   4.13751
 Alpha virt. eigenvalues --    4.13862   4.14722   4.15103   4.15761   4.16080
 Alpha virt. eigenvalues --    4.16838   4.17421   4.18366   4.18386   4.19554
 Alpha virt. eigenvalues --    4.20435   4.21267   4.21505   4.21935   4.22709
 Alpha virt. eigenvalues --    4.22936   4.23171   4.23802   4.24928   4.25363
 Alpha virt. eigenvalues --    4.25809   4.26614   4.27254   4.28046   4.28124
 Alpha virt. eigenvalues --    4.28590   4.28788   4.29800   4.29911   4.30159
 Alpha virt. eigenvalues --    4.30326   4.31199   4.31612   4.32148   4.33061
 Alpha virt. eigenvalues --    4.33607   4.34318   4.35274   4.35581   4.35826
 Alpha virt. eigenvalues --    4.36117   4.36743   4.37066   4.37421   4.38394
 Alpha virt. eigenvalues --    4.38798   4.39477   4.40151   4.40813   4.41066
 Alpha virt. eigenvalues --    4.41588   4.42017   4.42411   4.43790   4.43938
 Alpha virt. eigenvalues --    4.44827   4.45867   4.46163   4.47479   4.48336
 Alpha virt. eigenvalues --    4.49617   4.49928   4.51117   4.51499   4.52296
 Alpha virt. eigenvalues --    4.52822   4.53212   4.54046   4.54355   4.55108
 Alpha virt. eigenvalues --    4.55606   4.56842   4.57301   4.57716   4.58570
 Alpha virt. eigenvalues --    4.59092   4.59811   4.60286   4.60680   4.61117
 Alpha virt. eigenvalues --    4.61877   4.63403   4.63662   4.64679   4.64924
 Alpha virt. eigenvalues --    4.65216   4.65863   4.66102   4.66448   4.67947
 Alpha virt. eigenvalues --    4.68309   4.68594   4.70027   4.70341   4.70400
 Alpha virt. eigenvalues --    4.70986   4.71549   4.72125   4.73697   4.73917
 Alpha virt. eigenvalues --    4.74954   4.75510   4.76542   4.77720   4.78033
 Alpha virt. eigenvalues --    4.78291   4.78818   4.79468   4.80098   4.80693
 Alpha virt. eigenvalues --    4.81578   4.82232   4.82321   4.82697   4.83035
 Alpha virt. eigenvalues --    4.84004   4.84263   4.85291   4.86298   4.87591
 Alpha virt. eigenvalues --    4.88056   4.88206   4.89165   4.89556   4.91405
 Alpha virt. eigenvalues --    4.92473   4.93436   4.94077   4.94774   4.95225
 Alpha virt. eigenvalues --    4.95681   4.96668   4.97378   4.97860   4.98556
 Alpha virt. eigenvalues --    4.99203   5.01027   5.01799   5.02438   5.03737
 Alpha virt. eigenvalues --    5.05852   5.07435   5.08269   5.09382   5.09697
 Alpha virt. eigenvalues --    5.10305   5.10581   5.11714   5.11991   5.12391
 Alpha virt. eigenvalues --    5.13105   5.14452   5.14839   5.14974   5.15271
 Alpha virt. eigenvalues --    5.15522   5.17518   5.17665   5.17906   5.18496
 Alpha virt. eigenvalues --    5.19000   5.19400   5.19583   5.21637   5.23136
 Alpha virt. eigenvalues --    5.23714   5.24574   5.26984   5.27542   5.27810
 Alpha virt. eigenvalues --    5.28396   5.28745   5.29217   5.30547   5.32566
 Alpha virt. eigenvalues --    5.34410   5.35029   5.35649   5.37568   5.38262
 Alpha virt. eigenvalues --    5.38579   5.38983   5.39981   5.40351   5.40765
 Alpha virt. eigenvalues --    5.41068   5.42412   5.45403   5.47825   5.49277
 Alpha virt. eigenvalues --    5.49536   5.50573   5.51510   5.51738   5.52900
 Alpha virt. eigenvalues --    5.53109   5.53969   5.54369   5.56065   5.56876
 Alpha virt. eigenvalues --    5.57906   5.58064   5.58330   5.59713   5.62252
 Alpha virt. eigenvalues --    5.63717   5.67207   5.68043   5.69056   5.70856
 Alpha virt. eigenvalues --    5.72150   5.73625   5.73918   5.75156   5.78526
 Alpha virt. eigenvalues --    5.82858   5.83678   5.83862   5.86612   5.87030
 Alpha virt. eigenvalues --    5.89503   5.90673   5.91187   5.92968   5.95719
 Alpha virt. eigenvalues --    5.98594   6.00093   6.01788   6.03180   6.03822
 Alpha virt. eigenvalues --    6.04911   6.06998   6.07450   6.09192   6.12193
 Alpha virt. eigenvalues --    6.14633   6.18044   6.22094   6.22175   6.23540
 Alpha virt. eigenvalues --    6.24938   6.27371   6.30679   6.31873   6.36764
 Alpha virt. eigenvalues --    6.38436   6.41408   6.41721   6.42354   6.43885
 Alpha virt. eigenvalues --    6.45071   6.47267   6.49657   6.58622   6.58752
 Alpha virt. eigenvalues --    6.67940   6.69338   6.71086   6.76783   6.80953
 Alpha virt. eigenvalues --    6.87036   6.89817   6.95468   6.97543   6.99813
 Alpha virt. eigenvalues --    7.05555   7.05829   7.06698   7.08230   7.18979
 Alpha virt. eigenvalues --    7.20566   7.24994  22.25868  22.27820  22.43904
 Alpha virt. eigenvalues --   22.46732  22.48381  22.51316  22.51696  22.55164
 Alpha virt. eigenvalues --   22.56474  22.66341  22.66835  22.67643  22.68823
 Alpha virt. eigenvalues --   22.71824  22.81323  22.84706  22.87389  22.89888
 Alpha virt. eigenvalues --   22.93052  22.97339  23.00480  23.02153  23.11505
 Alpha virt. eigenvalues --   23.13662  23.21652  23.22574  23.23726  23.32840
 Alpha virt. eigenvalues --   23.35024  23.41403  23.43785  23.48240  23.49965
 Alpha virt. eigenvalues --   23.51449  23.66352  23.71369  23.72215  23.84101
 Alpha virt. eigenvalues --   32.39763  32.65822  32.85186  32.87466  32.89760
 Alpha virt. eigenvalues --   33.11962  43.86471  43.89127  43.93186  44.02027
 Alpha virt. eigenvalues --   44.07508
  Beta  occ. eigenvalues -- -256.43956 -30.20575 -26.03558 -26.03037 -26.02882
  Beta  occ. eigenvalues --  -19.33594 -19.32689 -19.30664 -19.26415 -19.23408
  Beta  occ. eigenvalues --  -14.54335 -14.49805 -14.49308 -14.48407 -14.48302
  Beta  occ. eigenvalues --  -14.47299 -10.43318 -10.41539 -10.40252 -10.38141
  Beta  occ. eigenvalues --  -10.36862 -10.36680 -10.36237 -10.35968 -10.35764
  Beta  occ. eigenvalues --  -10.35654 -10.35519 -10.35396 -10.35271 -10.34916
  Beta  occ. eigenvalues --  -10.34754 -10.33497 -10.33308 -10.32694 -10.32619
  Beta  occ. eigenvalues --  -10.32556 -10.32310 -10.32273 -10.32167 -10.31928
  Beta  occ. eigenvalues --  -10.31909 -10.31899 -10.31801 -10.31793 -10.31752
  Beta  occ. eigenvalues --  -10.31673 -10.31450 -10.31265 -10.30683 -10.30683
  Beta  occ. eigenvalues --  -10.30588 -10.30070 -10.30022 -10.29322  -3.55886
  Beta  occ. eigenvalues --   -2.32982  -2.31014  -2.30570  -1.23891  -1.23029
  Beta  occ. eigenvalues --   -1.16442  -1.15074  -1.11246  -1.10359  -1.08296
  Beta  occ. eigenvalues --   -1.07878  -1.07837  -1.06987  -1.00653  -0.96052
  Beta  occ. eigenvalues --   -0.94587  -0.93493  -0.92704  -0.92455  -0.92185
  Beta  occ. eigenvalues --   -0.91470  -0.90829  -0.89869  -0.88365  -0.87705
  Beta  occ. eigenvalues --   -0.86373  -0.86204  -0.84394  -0.83043  -0.82157
  Beta  occ. eigenvalues --   -0.81891  -0.81381  -0.79766  -0.78543  -0.77462
  Beta  occ. eigenvalues --   -0.76614  -0.76109  -0.74554  -0.74297  -0.73627
  Beta  occ. eigenvalues --   -0.73057  -0.72161  -0.70256  -0.70077  -0.69122
  Beta  occ. eigenvalues --   -0.68495  -0.66528  -0.66471  -0.66052  -0.65413
  Beta  occ. eigenvalues --   -0.64304  -0.62993  -0.62524  -0.62380  -0.61363
  Beta  occ. eigenvalues --   -0.60357  -0.59649  -0.59193  -0.58449  -0.58354
  Beta  occ. eigenvalues --   -0.57923  -0.57546  -0.57484  -0.57188  -0.57041
  Beta  occ. eigenvalues --   -0.56354  -0.56182  -0.55978  -0.55557  -0.55281
  Beta  occ. eigenvalues --   -0.55103  -0.54934  -0.54436  -0.54278  -0.53950
  Beta  occ. eigenvalues --   -0.53506  -0.53456  -0.53099  -0.52566  -0.52382
  Beta  occ. eigenvalues --   -0.52224  -0.52041  -0.51943  -0.51697  -0.51368
  Beta  occ. eigenvalues --   -0.51250  -0.51039  -0.50911  -0.50425  -0.50313
  Beta  occ. eigenvalues --   -0.50184  -0.50004  -0.49684  -0.49404  -0.49065
  Beta  occ. eigenvalues --   -0.48863  -0.48133  -0.47869  -0.47619  -0.47121
  Beta  occ. eigenvalues --   -0.46984  -0.46368  -0.46205  -0.45631  -0.45419
  Beta  occ. eigenvalues --   -0.45074  -0.44337  -0.43625  -0.43514  -0.43211
  Beta  occ. eigenvalues --   -0.43113  -0.42585  -0.41996  -0.41677  -0.41281
  Beta  occ. eigenvalues --   -0.40404  -0.40080  -0.39111  -0.38385  -0.38248
  Beta  occ. eigenvalues --   -0.37050  -0.36223  -0.35991  -0.35053  -0.34187
  Beta  occ. eigenvalues --   -0.33504  -0.33003  -0.32598  -0.32016  -0.31070
  Beta  occ. eigenvalues --   -0.30187  -0.29837
  Beta virt. eigenvalues --   -0.23376  -0.17320  -0.17225  -0.17007  -0.14228
  Beta virt. eigenvalues --   -0.11739  -0.09737  -0.09289  -0.07644  -0.07472
  Beta virt. eigenvalues --   -0.06940  -0.06700  -0.05518  -0.05360  -0.04749
  Beta virt. eigenvalues --   -0.04531  -0.03923  -0.03798  -0.03311  -0.03001
  Beta virt. eigenvalues --   -0.02688  -0.01892  -0.01574  -0.01385  -0.01074
  Beta virt. eigenvalues --   -0.01058  -0.00670  -0.00481  -0.00215   0.00569
  Beta virt. eigenvalues --    0.00879   0.01276   0.01479   0.01766   0.01827
  Beta virt. eigenvalues --    0.02041   0.02289   0.02934   0.03024   0.03224
  Beta virt. eigenvalues --    0.03802   0.04013   0.04229   0.04440   0.04519
  Beta virt. eigenvalues --    0.04629   0.04719   0.05041   0.05076   0.05262
  Beta virt. eigenvalues --    0.05474   0.05735   0.05908   0.06100   0.06228
  Beta virt. eigenvalues --    0.06463   0.06625   0.06779   0.07186   0.07463
  Beta virt. eigenvalues --    0.07587   0.07896   0.08047   0.08271   0.08405
  Beta virt. eigenvalues --    0.08708   0.08988   0.09554   0.09763   0.10023
  Beta virt. eigenvalues --    0.10177   0.10459   0.10612   0.10763   0.10978
  Beta virt. eigenvalues --    0.11307   0.11507   0.11762   0.11973   0.12168
  Beta virt. eigenvalues --    0.12407   0.12430   0.12681   0.12778   0.12971
  Beta virt. eigenvalues --    0.13216   0.13317   0.13660   0.14180   0.14229
  Beta virt. eigenvalues --    0.14413   0.14697   0.14902   0.15197   0.15280
  Beta virt. eigenvalues --    0.15682   0.15717   0.16100   0.16410   0.16437
  Beta virt. eigenvalues --    0.16578   0.16774   0.17141   0.17375   0.17591
  Beta virt. eigenvalues --    0.17943   0.18070   0.18304   0.18571   0.18732
  Beta virt. eigenvalues --    0.18918   0.18951   0.19505   0.19581   0.19988
  Beta virt. eigenvalues --    0.20108   0.20154   0.20650   0.20906   0.21103
  Beta virt. eigenvalues --    0.21289   0.21671   0.21890   0.22196   0.22417
  Beta virt. eigenvalues --    0.22578   0.22749   0.22916   0.22951   0.23203
  Beta virt. eigenvalues --    0.23582   0.23987   0.24220   0.24549   0.25009
  Beta virt. eigenvalues --    0.25263   0.25289   0.25478   0.25738   0.25852
  Beta virt. eigenvalues --    0.26146   0.26420   0.26692   0.26818   0.27152
  Beta virt. eigenvalues --    0.27429   0.27590   0.27870   0.28028   0.28158
  Beta virt. eigenvalues --    0.28451   0.28816   0.29002   0.29192   0.29379
  Beta virt. eigenvalues --    0.29522   0.29743   0.30017   0.30247   0.30595
  Beta virt. eigenvalues --    0.30821   0.31012   0.31227   0.31352   0.31615
  Beta virt. eigenvalues --    0.31874   0.32271   0.32590   0.32707   0.32818
  Beta virt. eigenvalues --    0.33001   0.33096   0.33391   0.33423   0.33677
  Beta virt. eigenvalues --    0.34000   0.34094   0.34187   0.34623   0.34658
  Beta virt. eigenvalues --    0.35007   0.35198   0.35357   0.35481   0.35855
  Beta virt. eigenvalues --    0.35905   0.35991   0.36130   0.36563   0.36764
  Beta virt. eigenvalues --    0.36884   0.37097   0.37177   0.37425   0.37686
  Beta virt. eigenvalues --    0.37934   0.38110   0.38268   0.38500   0.38613
  Beta virt. eigenvalues --    0.38828   0.39077   0.39379   0.39415   0.39535
  Beta virt. eigenvalues --    0.39652   0.39738   0.39809   0.40083   0.40298
  Beta virt. eigenvalues --    0.40370   0.40486   0.40830   0.40925   0.41361
  Beta virt. eigenvalues --    0.41517   0.41701   0.41981   0.42087   0.42488
  Beta virt. eigenvalues --    0.42527   0.42772   0.42945   0.43019   0.43148
  Beta virt. eigenvalues --    0.43355   0.43632   0.43688   0.44134   0.44378
  Beta virt. eigenvalues --    0.44582   0.44781   0.44935   0.45175   0.45296
  Beta virt. eigenvalues --    0.45486   0.45884   0.46058   0.46257   0.46450
  Beta virt. eigenvalues --    0.46764   0.46934   0.47221   0.47675   0.47829
  Beta virt. eigenvalues --    0.48098   0.48173   0.48363   0.48522   0.48816
  Beta virt. eigenvalues --    0.49109   0.49366   0.49491   0.49802   0.50148
  Beta virt. eigenvalues --    0.50573   0.50767   0.51269   0.51370   0.51563
  Beta virt. eigenvalues --    0.51606   0.51824   0.52058   0.52285   0.52442
  Beta virt. eigenvalues --    0.52857   0.53103   0.53227   0.53414   0.53806
  Beta virt. eigenvalues --    0.53947   0.54209   0.54408   0.54892   0.55110
  Beta virt. eigenvalues --    0.55153   0.55318   0.55710   0.55910   0.56107
  Beta virt. eigenvalues --    0.56343   0.56558   0.57082   0.57178   0.57521
  Beta virt. eigenvalues --    0.57637   0.58054   0.58095   0.58329   0.58581
  Beta virt. eigenvalues --    0.58876   0.59092   0.59281   0.59771   0.59850
  Beta virt. eigenvalues --    0.60035   0.60453   0.60859   0.61098   0.61452
  Beta virt. eigenvalues --    0.61531   0.62053   0.62375   0.62427   0.62675
  Beta virt. eigenvalues --    0.62976   0.63060   0.63563   0.63682   0.64040
  Beta virt. eigenvalues --    0.64219   0.64255   0.64838   0.65211   0.65641
  Beta virt. eigenvalues --    0.65996   0.66112   0.66597   0.66732   0.67033
  Beta virt. eigenvalues --    0.67645   0.67909   0.68334   0.68435   0.68864
  Beta virt. eigenvalues --    0.69103   0.69182   0.69816   0.70140   0.70374
  Beta virt. eigenvalues --    0.70557   0.70902   0.71105   0.71508   0.71595
  Beta virt. eigenvalues --    0.72331   0.72413   0.72961   0.73110   0.73498
  Beta virt. eigenvalues --    0.73611   0.74033   0.74241   0.74616   0.74844
  Beta virt. eigenvalues --    0.74960   0.75399   0.75647   0.75787   0.76212
  Beta virt. eigenvalues --    0.76739   0.77310   0.77396   0.77787   0.78096
  Beta virt. eigenvalues --    0.78454   0.78677   0.78912   0.78985   0.79277
  Beta virt. eigenvalues --    0.79649   0.80133   0.80375   0.80667   0.81125
  Beta virt. eigenvalues --    0.81308   0.81970   0.82120   0.82303   0.82455
  Beta virt. eigenvalues --    0.82677   0.83423   0.83877   0.84110   0.84265
  Beta virt. eigenvalues --    0.84476   0.84667   0.84916   0.85313   0.85551
  Beta virt. eigenvalues --    0.85847   0.86005   0.86222   0.86596   0.87128
  Beta virt. eigenvalues --    0.87392   0.87754   0.87929   0.88106   0.88199
  Beta virt. eigenvalues --    0.88319   0.88918   0.89035   0.89311   0.89477
  Beta virt. eigenvalues --    0.89858   0.90081   0.90324   0.90714   0.91049
  Beta virt. eigenvalues --    0.91292   0.91715   0.91833   0.92386   0.92517
  Beta virt. eigenvalues --    0.92923   0.93553   0.93566   0.93834   0.94102
  Beta virt. eigenvalues --    0.94519   0.95135   0.95392   0.95599   0.95847
  Beta virt. eigenvalues --    0.96410   0.96804   0.97071   0.97249   0.97936
  Beta virt. eigenvalues --    0.98215   0.98283   0.98729   0.99173   0.99599
  Beta virt. eigenvalues --    0.99661   0.99890   1.00400   1.00798   1.01100
  Beta virt. eigenvalues --    1.01215   1.01473   1.01507   1.02055   1.02663
  Beta virt. eigenvalues --    1.03104   1.03170   1.03537   1.04150   1.04186
  Beta virt. eigenvalues --    1.04890   1.05372   1.05429   1.06311   1.06403
  Beta virt. eigenvalues --    1.06668   1.06749   1.06987   1.07791   1.08014
  Beta virt. eigenvalues --    1.08087   1.08570   1.09234   1.09327   1.09450
  Beta virt. eigenvalues --    1.09864   1.10369   1.10961   1.11350   1.11716
  Beta virt. eigenvalues --    1.11810   1.12211   1.12919   1.12973   1.13310
  Beta virt. eigenvalues --    1.13549   1.13854   1.14517   1.14568   1.15072
  Beta virt. eigenvalues --    1.15454   1.16087   1.16563   1.16657   1.16811
  Beta virt. eigenvalues --    1.17246   1.17807   1.18187   1.18540   1.18839
  Beta virt. eigenvalues --    1.19001   1.19413   1.19874   1.20622   1.20770
  Beta virt. eigenvalues --    1.21395   1.21617   1.21905   1.22242   1.22309
  Beta virt. eigenvalues --    1.22897   1.23325   1.23692   1.24171   1.24526
  Beta virt. eigenvalues --    1.24862   1.25574   1.26025   1.26251   1.26794
  Beta virt. eigenvalues --    1.26935   1.27279   1.27710   1.28135   1.28185
  Beta virt. eigenvalues --    1.28906   1.29435   1.29544   1.30250   1.30323
  Beta virt. eigenvalues --    1.30736   1.31438   1.32109   1.32464   1.32606
  Beta virt. eigenvalues --    1.32887   1.33289   1.33678   1.34516   1.34777
  Beta virt. eigenvalues --    1.35186   1.35751   1.36400   1.36802   1.37519
  Beta virt. eigenvalues --    1.37749   1.37963   1.38074   1.38226   1.38787
  Beta virt. eigenvalues --    1.38923   1.39468   1.39806   1.40016   1.40101
  Beta virt. eigenvalues --    1.40700   1.40873   1.41216   1.41597   1.41799
  Beta virt. eigenvalues --    1.41871   1.42801   1.42904   1.43411   1.43483
  Beta virt. eigenvalues --    1.43567   1.44274   1.44436   1.44610   1.44898
  Beta virt. eigenvalues --    1.45119   1.45753   1.45954   1.46234   1.46392
  Beta virt. eigenvalues --    1.46554   1.46674   1.46890   1.47156   1.47320
  Beta virt. eigenvalues --    1.47548   1.48016   1.48557   1.49009   1.49301
  Beta virt. eigenvalues --    1.49323   1.49635   1.49945   1.50257   1.50454
  Beta virt. eigenvalues --    1.51077   1.51391   1.51424   1.51600   1.52070
  Beta virt. eigenvalues --    1.52183   1.52328   1.52709   1.53031   1.53368
  Beta virt. eigenvalues --    1.53593   1.53911   1.54086   1.54373   1.54503
  Beta virt. eigenvalues --    1.55016   1.55071   1.55174   1.55577   1.55867
  Beta virt. eigenvalues --    1.56162   1.56465   1.56472   1.56780   1.56876
  Beta virt. eigenvalues --    1.57252   1.57693   1.57900   1.58124   1.58485
  Beta virt. eigenvalues --    1.58896   1.59211   1.59535   1.59919   1.60066
  Beta virt. eigenvalues --    1.60484   1.61222   1.61489   1.61796   1.62458
  Beta virt. eigenvalues --    1.62760   1.62816   1.63318   1.63601   1.63827
  Beta virt. eigenvalues --    1.63901   1.64366   1.64654   1.65009   1.65162
  Beta virt. eigenvalues --    1.65612   1.65839   1.66088   1.66235   1.66941
  Beta virt. eigenvalues --    1.67133   1.67253   1.68201   1.68273   1.68767
  Beta virt. eigenvalues --    1.69039   1.69537   1.69986   1.70300   1.71138
  Beta virt. eigenvalues --    1.71406   1.72049   1.72280   1.72607   1.73055
  Beta virt. eigenvalues --    1.73458   1.74115   1.74305   1.74858   1.75425
  Beta virt. eigenvalues --    1.75540   1.75815   1.76089   1.76835   1.76991
  Beta virt. eigenvalues --    1.77156   1.77205   1.77351   1.77871   1.78318
  Beta virt. eigenvalues --    1.78646   1.78748   1.79183   1.80029   1.80088
  Beta virt. eigenvalues --    1.80729   1.81207   1.81511   1.81972   1.82195
  Beta virt. eigenvalues --    1.82493   1.83054   1.83494   1.83846   1.84122
  Beta virt. eigenvalues --    1.84658   1.84897   1.85463   1.85881   1.86121
  Beta virt. eigenvalues --    1.86411   1.86796   1.87073   1.87437   1.87928
  Beta virt. eigenvalues --    1.88166   1.88939   1.89053   1.89407   1.90040
  Beta virt. eigenvalues --    1.90236   1.90530   1.90698   1.91053   1.91485
  Beta virt. eigenvalues --    1.91722   1.92460   1.92671   1.92944   1.93603
  Beta virt. eigenvalues --    1.93732   1.94181   1.94701   1.94890   1.95181
  Beta virt. eigenvalues --    1.95833   1.96593   1.96706   1.96995   1.97449
  Beta virt. eigenvalues --    1.97566   1.98254   1.98632   1.98796   1.98980
  Beta virt. eigenvalues --    1.99434   1.99604   2.00310   2.00501   2.00953
  Beta virt. eigenvalues --    2.01050   2.01780   2.02376   2.02728   2.03106
  Beta virt. eigenvalues --    2.03307   2.04029   2.04185   2.04529   2.04572
  Beta virt. eigenvalues --    2.05033   2.05349   2.06012   2.06760   2.07099
  Beta virt. eigenvalues --    2.07221   2.07677   2.08251   2.08511   2.08862
  Beta virt. eigenvalues --    2.09105   2.09655   2.09995   2.10364   2.10904
  Beta virt. eigenvalues --    2.11362   2.11698   2.11885   2.12156   2.12872
[...]
  1601. RY*(   5) H  71                  0.00000     2.95803   
  1602. RY*(   1) H  72                  0.00037     0.91354   
  1603. RY*(   2) H  72                  0.00011     1.58238   
  1604. RY*(   3) H  72                  0.00005     2.17024   
  1605. RY*(   4) H  72                  0.00002     2.55033   
  1606. RY*(   5) H  72                  0.00001     2.74893   
  1607. RY*(   1) H  73                  0.00029     1.33443   
  1608. RY*(   2) H  73                  0.00007     1.39094   
  1609. RY*(   3) H  73                  0.00005     2.18610   
  1610. RY*(   4) H  73                  0.00004     2.38716   
  1611. RY*(   5) H  73                  0.00000     3.02515   
  1612. RY*(   1) H  74                  0.00044     1.28026   
  1613. RY*(   2) H  74                  0.00010     1.52270   
  1614. RY*(   3) H  74                  0.00005     2.54918   
  1615. RY*(   4) H  74                  0.00005     2.01908   
  1616. RY*(   5) H  74                  0.00000     3.00522   
  1617. RY*(   1) H  75                  0.00043     1.14808   
  1618. RY*(   2) H  75                  0.00014     1.53826   
  1619. RY*(   3) H  75                  0.00007     1.88925   
  1620. RY*(   4) H  75                  0.00003     2.37073   
  1621. RY*(   5) H  75                  0.00001     2.94076   
  1622. RY*(   1) H  76                  0.00029     1.49425   
  1623. RY*(   2) H  76                  0.00012     0.99057   
  1624. RY*(   3) H  76                  0.00007     2.02139   
  1625. RY*(   4) H  76                  0.00002     2.40888   
  1626. RY*(   5) H  76                  0.00000     2.94169   
  1627. RY*(   1) H  77                  0.00032     0.98939   
  1628. RY*(   2) H  77                  0.00011     1.52605   
  1629. RY*(   3) H  77                  0.00005     2.08488   
  1630. RY*(   4) H  77                  0.00003     2.31731   
  1631. RY*(   5) H  77                  0.00001     2.97016   
  1632. RY*(   1) H  78                  0.00023     1.08262   
  1633. RY*(   2) H  78                  0.00010     1.50757   
  1634. RY*(   3) H  78                  0.00003     2.33178   
  1635. RY*(   4) H  78                  0.00004     2.15656   
  1636. RY*(   5) H  78                  0.00000     2.94182   
  1637. RY*(   1) H  79                  0.00023     1.27829   
  1638. RY*(   2) H  79                  0.00007     1.40322   
  1639. RY*(   3) H  79                  0.00005     2.13148   
  1640. RY*(   4) H  79                  0.00003     2.38820   
  1641. RY*(   5) H  79                  0.00000     2.99113   
  1642. RY*(   1) H  80                  0.00027     1.81274   
  1643. RY*(   2) H  80                  0.00007     2.05623   
  1644. RY*(   3) H  80                  0.00005     2.37967   
  1645. RY*(   4) H  80                  0.00003     1.34152   
  1646. RY*(   5) H  80                  0.00001     2.98440   
  1647. RY*(   1) H  81                  0.00036     1.26436   
  1648. RY*(   2) H  81                  0.00016     1.12118   
  1649. RY*(   3) H  81                  0.00002     2.27736   
  1650. RY*(   4) H  81                  0.00001     2.22104   
  1651. RY*(   5) H  81                  0.00001     2.67341   
  1652. RY*(   1) H  82                  0.00036     1.23417   
  1653. RY*(   2) H  82                  0.00016     1.14881   
  1654. RY*(   3) H  82                  0.00002     2.34701   
  1655. RY*(   4) H  82                  0.00001     2.13046   
  1656. RY*(   5) H  82                  0.00001     2.72782   
  1711. BD*(   1)Fe   7 - N  39          0.07714     0.13494   
  1712. BD*(   1) C   8 - C  13          0.01073     0.46244   
  1713. BD*(   1) C   8 - C  43          0.01033     0.50297   
  1714. BD*(   2) C   8 - C  43          0.18516    -0.04557  1786(v),1729(v),1726(r)
                                                    379(g),1293(g)
  1715. BD*(   1) C   8 - H  67          0.00713     0.35993   
  1716. BD*(   1) C   9 - C  16          0.01063     0.49835   
  1717. BD*(   2) C   9 - C  16          0.18384    -0.05415  1733(v),1751(v),1729(v)
                                                    405(g),591(g),1721(r)
                                                    1710(r)
  1718. BD*(   1) C   9 - C  24          0.00975     0.46238   
  1719. BD*(   1) C   9 - H  68          0.00719     0.34766   
  1720. BD*(   1) C  10 - C  27          0.01045     0.45850   
  1721. BD*(   2) C  10 - C  27          0.16918    -0.05711  1768(v),1755(v),1751(v)
                                                    431(g),1717(r),877(g)
  1722. BD*(   1) C  10 - C  32          0.00977     0.45588   
  1723. BD*(   1) C  10 - H  70          0.00573     0.34585   
  1724. BD*(   1) C  11 - C  35          0.01098     0.45893   
  1725. BD*(   1) C  11 - C  40          0.01092     0.49849   
  1726. BD*(   2) C  11 - C  40          0.19003    -0.05154  1786(v),186(v),457(g)
                                                    1714(r),1215(g)
  1727. BD*(   1) C  11 - H  69          0.00663     0.34146   
  1728. BD*(   1) N  12 - C  13          0.01287     0.38461   
  1729. BD*(   2) N  12 - C  13          0.29837    -0.10097  1714(v),1733(v),1717(v)
                                                    511(g),483(g),176(r),1804(r)
  1730. BD*(   1) N  12 - C  16          0.01500     0.36224   
  1731. BD*(   1) C  13 - C  14          0.01802     0.36124   
  1732. BD*(   1) C  14 - C  15          0.01190     0.49911   
  1733. BD*(   2) C  14 - C  15          0.11972    -0.03825  1717(v),1729(v),1747(r)
                                                    1740(v),1738(v),1742(v)
                                                    1737(v)
  1734. BD*(   1) C  14 - C  18          0.01088     0.33048   
  1735. BD*(   1) C  15 - C  16          0.01622     0.41992   
  1736. BD*(   1) C  15 - C  17          0.00907     0.29788   
  1737. BD*(   1) C  17 - H  64          0.00343     0.32143   
  1738. BD*(   1) C  17 - H  65          0.00441     0.31228   
  1739. BD*(   1) C  17 - H  66          0.00309     0.32166   
  1740. BD*(   1) C  18 - C  19          0.00825     0.23389   
  1741. BD*(   1) C  18 - H  54          0.00646     0.32863   
  1742. BD*(   1) C  18 - H  55          0.00690     0.32477   
  1743. BD*(   1) C  19 - C  20          0.03785     0.27326   
  1744. BD*(   1) C  19 - H  52          0.00472     0.31997   
  1745. BD*(   1) C  19 - H  53          0.00595     0.31171   
  1746. BD*(   1) C  20 - O  21          0.02769     0.43825   
  1747. BD*(   2) C  20 - O  21          0.07954    -0.03284   
  1748. BD*(   1) C  20 - O  22          0.03928     0.38207   
  1749. BD*(   1) O  22 - H  51          0.00750     0.29504   
  1750. BD*(   1) N  23 - C  24          0.01350     0.35628   
  1751. BD*(   2) N  23 - C  24          0.28525    -0.10411  1717(v),1721(v),1755(v)
                                                    797(g),769(g),405(v),176(r)
                                                    1707(r)
  1752. BD*(   1) N  23 - C  27          0.01215     0.41014   
  1753. BD*(   1) C  24 - C  25          0.01745     0.36120   
  1754. BD*(   1) C  25 - C  26          0.01094     0.55903   
  1755. BD*(   2) C  25 - C  26          0.10628    -0.01759  1763(v),1721(v),1751(v)
                                                    1760(v),1764(v)
  1756. BD*(   1) C  25 - C  28          0.00892     0.31500   
  1757. BD*(   1) C  26 - C  27          0.01965     0.38561   
  1758. BD*(   1) C  26 - C  29          0.01400     0.32765   
  1759. BD*(   1) C  28 - H  71          0.00303     0.32549   
  1760. BD*(   1) C  28 - H  72          0.00481     0.32563   
  1761. BD*(   1) C  28 - H  73          0.00354     0.34242   
  1762. BD*(   1) C  29 - C  30          0.00249     0.50339   
  1763. BD*(   2) C  29 - C  30          0.02383    -0.03606   
  1764. BD*(   1) C  29 - H  74          0.00902     0.35984   
  1765. BD*(   1) C  30 - H  75          0.00407     0.36226   
  1766. BD*(   1) C  30 - H  76          0.00381     0.36700   
  1767. BD*(   1) N  31 - C  32          0.01444     0.35033   
  1768. BD*(   2) N  31 - C  32          0.35052    -0.12010  184(v),1721(v),186(v)
                                                    1005(g),977(g),431(v),176(r)
                                                    1707(r)
  1769. BD*(   1) N  31 - C  35          0.01214     0.42024   
  1770. BD*(   1) C  32 - C  33          0.01658     0.38342   
  1771. BD*(   1) C  33 - C  34          0.01042     0.49346   
  1772. BD*(   1) C  33 - C  36          0.00800     0.29103   
  1773. BD*(   1) C  34 - C  35          0.01637     0.36811   
  1774. BD*(   1) C  34 - C  37          0.01136     0.28642   
  1775. BD*(   1) C  36 - H  77          0.00435     0.30695   
  1776. BD*(   1) C  36 - H  78          0.00312     0.30742   
  1777. BD*(   1) C  36 - H  79          0.00257     0.31272   
  1778. BD*(   1) C  37 - C  38          0.00219     0.47668   
  1779. BD*(   1) C  37 - H  80          0.00344     0.31448   
  1780. BD*(   1) C  38 - H  81          0.00612     0.31512   
  1781. BD*(   1) C  38 - H  82          0.00611     0.31263   
  1782. BD*(   1) N  39 - C  40          0.01333     0.42729   
  1783. BD*(   1) N  39 - C  43          0.01407     0.40099   
  1784. BD*(   1) C  40 - C  41          0.01663     0.42836   
  1785. BD*(   1) C  41 - C  42          0.01122     0.48832   
  1786. BD*(   2) C  41 - C  42          0.11155    -0.03073  1714(v),1726(v),1793(v)
                                                    1790(v)
  1787. BD*(   1) C  41 - C  44          0.00818     0.31531   
  1788. BD*(   1) C  42 - C  43          0.01688     0.40215   
  1789. BD*(   1) C  42 - C  45          0.01024     0.32698   
  1790. BD*(   1) C  44 - H  61          0.00493     0.32127   
  1791. BD*(   1) C  44 - H  62          0.00372     0.32066   
  1792. BD*(   1) C  44 - H  63          0.00327     0.32918   
  1793. BD*(   1) C  45 - C  46          0.00976     0.24925   
  1794. BD*(   1) C  45 - H  59          0.00655     0.33489   
  1795. BD*(   1) C  45 - H  60          0.00650     0.33599   
  1796. BD*(   1) C  46 - C  47          0.03006     0.29656   
  1797. BD*(   1) C  46 - H  57          0.00471     0.32910   
  1798. BD*(   1) C  46 - H  58          0.00585     0.31609   
  1799. BD*(   1) C  47 - O  48          0.03518     0.41992   
  1800. BD*(   1) C  47 - O  49          0.02693     0.44489   
  1801. BD*(   2) C  47 - O  49          0.10134    -0.02995  1800(g),1798(v),1802(v)
                                                    1402(g),1793(v)
  1802. BD*(   1) O  48 - H  56          0.00645     0.32373   
       -------------------------------
              Total Lewis  155.17245  ( 96.8500%)
        Valence non-Lewis    4.73980  (  2.9583%)
        Rydberg non-Lewis    0.30704  (  0.1916%)
       -------------------------------
            Total unit  2  160.21929  (100.0000%)
           Charge unit  2    0.78071

 Molecular unit  3  (H2O)
   107. BD (   1) O  50 - H  89          0.99567    -0.86194  176(r),1804(g),354(r)
                                                    1695(v),356(r),352(r),173(r)
                                                    353(r),1711(r),326(r),359(r)
                                                    360(r),175(r),355(r),770(r)
                                                    1291(r)
   108. BD (   1) O  50 - H  90          0.91805    -0.88294  176(r),173(r),172(r),174(r)
                                                    1689(v),1804(g),175(r)
                                                    1711(r),357(r),360(r)
                                                    1187(r),358(r),1782(r)
                                                    485(r),1783(r),1188(r)
                                                    1730(r),486(r),1767(r)
                                                    361(r),1728(r),1769(r)
                                                    328(r),980(r),359(r),979(r)
                                                    1752(r),370(r),1750(r)
                                                    326(r),772(r),362(r),367(r)
                                                    355(r),331(r)
   166. CR (   1) O  50                  0.99991   -19.09924  176(r),1689(v),1692(v)
                                                    172(r),173(r),175(r),357(r)
                                                    358(r)
   194. LP (   1) O  50                  0.99237    -0.48872  176(r),174(r),1687(v),173(r)
                                                    1693(v),1711(r),172(r)
                                                    355(r),354(r),175(r),1185(r)
                                                    358(r),1768(r),327(r),360(r)
                                                    771(r),484(r),486(r)
   195. LP (   2) O  50                  0.98977    -0.63983  176(r),175(r),1804(g)
                                                    1693(v),172(r),1688(v)
                                                    1694(v),173(r),357(r),979(r)
                                                    359(r),174(r),1768(r),358(r)
                                                    483(r),355(r),360(r),353(r)
                                                    1186(r),328(r),980(r),361(r)
                                                    772(r),362(r)
  1471. RY*(   1) O  50                  0.00076     0.79293   
  1472. RY*(   2) O  50                  0.00070     0.74780   
  1473. RY*(   3) O  50                  0.00015     0.90853   
  1474. RY*(   4) O  50                  0.00006     1.84583   
  1475. RY*(   5) O  50                  0.00003     3.61491   
  1476. RY*(   6) O  50                  0.00003     2.13894   
  1477. RY*(   7) O  50                  0.00002     2.30448   
  1478. RY*(   8) O  50                  0.00000     4.02045   
  1479. RY*(   9) O  50                  0.00000     3.17052   
  1480. RY*(  10) O  50                  0.00000    42.97322   
  1481. RY*(  11) O  50                  0.00000     6.15931   
  1482. RY*(  12) O  50                  0.00000     3.16314   
  1483. RY*(  13) O  50                  0.00000     6.41944   
  1484. RY*(  14) O  50                  0.00000     2.56090   
  1485. RY*(  15) O  50                  0.00000     6.37210   
  1486. RY*(  16) O  50                  0.00000     2.24903   
  1487. RY*(  17) O  50                  0.00000     6.28502   
  1488. RY*(  18) O  50                  0.00001     2.44977   
  1489. RY*(  19) O  50                  0.00000     6.50018   
  1490. RY*(  20) O  50                  0.00000     5.30805   
  1491. RY*(  21) O  50                  0.00000     5.53521   
  1492. RY*(  22) O  50                  0.00000     5.30131   
  1493. RY*(  23) O  50                  0.00000     5.32341   
  1494. RY*(  24) O  50                  0.00000     5.36344   
  1495. RY*(  25) O  50                  0.00000     5.19626   
  1496. RY*(  26) O  50                  0.00000     5.15709   
  1687. RY*(   1) H  89                  0.00062     1.91399   
  1688. RY*(   2) H  89                  0.00034     1.73527   
  1689. RY*(   3) H  89                  0.00023     2.16445   
  1690. RY*(   4) H  89                  0.00007     0.92439   
  1691. RY*(   5) H  89                  0.00001     2.83356   
  1692. RY*(   1) H  90                  0.00159     2.46703   
  1693. RY*(   2) H  90                  0.00088     2.17049   
  1694. RY*(   3) H  90                  0.00076     2.63963   
  1695. RY*(   4) H  90                  0.00036     2.74163   
  1696. RY*(   5) H  90                  0.00013     3.40915   
  1803. BD*(   1) O  50 - H  89          0.00118     0.36217   
  1804. BD*(   1) O  50 - H  90          0.02967     0.35475   
       -------------------------------
              Total Lewis    4.89576  ( 99.2380%)
        Valence non-Lewis    0.03085  (  0.6254%)
        Rydberg non-Lewis    0.00674  (  0.1366%)
       -------------------------------
            Total unit  3    4.93336  (100.0000%)
           Charge unit  3    0.06664
 1\1\GINC-NODE357\SP\UPBE1PBE\def2TZVP\C38H40Fe1N6O5(1+,2)\ZHARTOVSKA\2
 9-Dec-2022\0\\# PBE1PBE/def2TZVP empiricaldispersion=GD3BJ scf=maxcycl
 e=999 geom=check guess=read pop=nbo\\1jp9_III_D\\1,2\C,0,9.522,29.638,
 2.62\C,0,10.701,29.479,3.525\N,0,10.928,30.315001,4.596\C,0,11.748,28.
 622,3.487\C,0,12.066,29.983,5.177\N,0,12.584,28.959,4.524\Fe,0,14.627,
 28.121,4.795\C,0,15.882,31.27,5.037\C,0,13.895,28.174999,8.147\C,0,13.
 451,24.923,4.61\C,0,15.452,28.044001,1.547\N,0,14.83,29.443001,6.281\C
 ,0,15.369,30.707001,6.203\C,0,15.333,31.365999,7.516\C,0,14.77,30.465,
 8.37\C,0,14.467,29.298,7.619\C,0,14.5,30.634001,9.847\C,0,15.824,32.73
 8998,7.794\C,0,14.651,33.764999,7.933\C,0,13.796,33.793999,6.697\O,0,1
 4.247,34.201,5.615\O,0,12.599,33.380001,6.81\N,0,13.821,26.812,6.079\C
 ,0,13.594,27.017,7.439\C,0,12.987,25.812,8.025\C,0,12.861,24.917999,7.
 054\C,0,13.387,25.547001,5.855\C,0,12.617,25.700001,9.478\C,0,12.304,2
 3.518,7.133\C,0,12.6540801,22.70642624,8.16030667\N,0,14.473,26.757999
 ,3.339\C,0,13.959,25.471001,3.438\C,0,14.045,24.795,2.175\C,0,14.614,2
 5.679001,1.327\C,0,14.865,26.896,2.065\C,0,13.587,23.384001,1.94\C,0,1
 4.988,25.563999,-0.121\C,0,14.75710306,24.40873409,-0.79078849\N,0,15.
 491,29.417,3.511\C,0,15.748,29.212,2.197\C,0,16.368999,30.343,1.609\C,
 0,16.5,31.271999,2.617\C,0,15.943,30.679001,3.806\C,0,16.795,30.461,0.
 175\C,0,17.118,32.632999,2.493\C,0,18.642,32.530998,2.813\C,0,19.36599
 9,33.835999,2.726\O,0,19.007,34.765999,1.962\O,0,20.375999,33.960999,3
 .469\O,0,16.577,27.254999,5.015\H,0,12.42773767,32.46873619,7.05872807
 \H,0,15.05783496,34.74052909,8.09951234\H,0,14.04467787,33.49123506,8.
 77104939\H,0,16.46300377,33.04820937,6.99339865\H,0,16.38663965,32.729
 14598,8.70407668\H,0,19.66649899,35.30504101,1.51917409\H,0,18.7569704
 5,32.14291317,3.80349077\H,0,19.08986648,31.84622738,2.12350394\H,0,16
 .98497857,32.9972961,1.49575734\H,0,16.65086745,33.30285626,3.18435984
 \H,0,17.73396066,29.96600286,0.03997886\H,0,16.05854743,30.00668329,-0
 .45439172\H,0,16.89625405,31.49445434,-0.08310801\H,0,15.29585509,31.1
 9277466,10.29341536\H,0,13.576676,31.15727991,9.98320567\H,0,14.436265
 55,29.67162828,10.31033213\H,0,16.26716287,32.2654204,5.11241742\H,0,1
 3.6594945,28.18790866,9.19068122\H,0,15.70486129,28.01094827,0.5078327
 \H,0,13.07184509,23.92417932,4.55084936\H,0,13.37601483,26.15982111,10
 .07579758\H,0,11.68244467,26.19286683,9.64708466\H,0,12.52922975,24.66
 76109,9.74514615\H,0,11.63258535,23.16594001,6.37791316\H,0,13.6199893
 6,22.80021075,8.6109992\H,0,11.96457782,21.97186115,8.52072414\H,0,14.
 31028302,22.70328447,2.33797824\H,0,12.64619789,23.22885584,2.42551145
 \H,0,13.47824045,23.21466873,0.88909661\H,0,15.43710319,26.39410167,-0
 .62511891\H,0,15.50942398,23.64848343,-0.82132006\H,0,13.82247793,24.2
 5684461,-1.28909107\H,0,12.49555452,30.46228499,6.03179168\H,0,10.3249
 6967,31.05742484,4.88782402\H,0,11.8966582,27.83092054,2.78202196\H,0,
 9.77772733,29.29838558,1.63808067\H,0,8.70363214,29.05990456,2.9954726
 5\H,0,9.24067974,30.66952645,2.57862267\H,0,17.42833133,27.69865988,5.
 015\H,0,15.87493541,27.90975491,5.015\\Version=ES64L-G16RevA.03\State=
 2-A\HF=-3438.3257162\S2=0.760471\S2-1=0.\S2A=0.750076\RMSD=3.781e-09\D
 ipole=-2.4567413,-2.4868577,-1.8705153\Quadrupole=-27.8695312,-2.30364
 29,30.1731741,5.0690622,-15.5411714,19.2130177\PG=C01 [X(C38H40Fe1N6O5
 )]\\@


 IF YOU GIVE A BOY AND A PIG EVERYTHING THEY WANT,
 YOU'LL GET A BAD BOY AND A GOOD PIG.
 Job cpu time:       5 days 13 hours 31 minutes 23.5 seconds.
 Elapsed time:       1 days  9 hours 33 minutes 33.6 seconds.
 File lengths (MBytes):  RWF=   3000 Int=      0 D2E=      0 Chk=    272 Scr=      1
 Normal termination of Gaussian 16 at Thu Dec 29 00:19:06 2022.
