 Entering Gaussian System, Link 0=g16
 Input=/net/homes/chemie/zhartovska/work/BioModel/Konrad/6xcx/6xcx01/6xcx.com
 Output=/net/homes/chemie/zhartovska/work/BioModel/Konrad/6xcx/6xcx01/6xcx.log
 Initial command:
 /afs/math/software/gaussian/g16.A03/g16/l1.exe "/scratch/zhartovska_gaussian.U2SST2L/Gau-26222.inp" -scrdir="/scratch/zhartovska_gaussian.U2SST2L/"
 Entering Link 1 = /afs/math/software/gaussian/g16.A03/g16/l1.exe PID=     26223.
  
 Copyright (c) 1988,1990,1992,1993,1995,1998,2003,2009,2016,
            Gaussian, Inc.  All Rights Reserved.
  
 This is part of the Gaussian(R) 16 program.  It is based on
 the Gaussian(R) 09 system (copyright 2009, Gaussian, Inc.),
 the Gaussian(R) 03 system (copyright 2003, Gaussian, Inc.),
 the Gaussian(R) 98 system (copyright 1998, Gaussian, Inc.),
 the Gaussian(R) 94 system (copyright 1995, Gaussian, Inc.),
 the Gaussian 92(TM) system (copyright 1992, Gaussian, Inc.),
 the Gaussian 90(TM) system (copyright 1990, Gaussian, Inc.),
 the Gaussian 88(TM) system (copyright 1988, Gaussian, Inc.),
 the Gaussian 86(TM) system (copyright 1986, Carnegie Mellon
 University), and the Gaussian 82(TM) system (copyright 1983,
 Carnegie Mellon University). Gaussian is a federally registered
 trademark of Gaussian, Inc.
  
 This software contains proprietary and confidential information,
 including trade secrets, belonging to Gaussian, Inc.
  
 This software is provided under written license and may be
 used, copied, transmitted, or stored only in accord with that
 written license.
  
 The following legend is applicable only to US Government
 contracts under FAR:
  
                    RESTRICTED RIGHTS LEGEND
  
 Use, reproduction and disclosure by the US Government is
 subject to restrictions as set forth in subparagraphs (a)
 and (c) of the Commercial Computer Software - Restricted
 Rights clause in FAR 52.227-19.
  
 Gaussian, Inc.
 340 Quinnipiac St., Bldg. 40, Wallingford CT 06492
  
  
 ---------------------------------------------------------------
 Warning -- This program may not be used in any manner that
 competes with the business of Gaussian, Inc. or will provide
 assistance to any competitor of Gaussian, Inc.  The licensee
 of this program is prohibited from giving any competitor of
 Gaussian, Inc. access to this program.  By using this program,
 the user acknowledges that Gaussian, Inc. is engaged in the
 business of creating and licensing software in the field of
 computational chemistry and represents and warrants to the
 licensee that it is not a competitor of Gaussian, Inc. and that
 it will not use this program in any manner prohibited above.
 ---------------------------------------------------------------
  

 Cite this work as:
 Gaussian 16, Revision A.03,
 M. J. Frisch, G. W. Trucks, H. B. Schlegel, G. E. Scuseria, 
 M. A. Robb, J. R. Cheeseman, G. Scalmani, V. Barone, 
 G. A. Petersson, H. Nakatsuji, X. Li, M. Caricato, A. V. Marenich, 
 J. Bloino, B. G. Janesko, R. Gomperts, B. Mennucci, H. P. Hratchian, 
 J. V. Ortiz, A. F. Izmaylov, J. L. Sonnenberg, D. Williams-Young, 
 F. Ding, F. Lipparini, F. Egidi, J. Goings, B. Peng, A. Petrone, 
 T. Henderson, D. Ranasinghe, V. G. Zakrzewski, J. Gao, N. Rega, 
 G. Zheng, W. Liang, M. Hada, M. Ehara, K. Toyota, R. Fukuda, 
 J. Hasegawa, M. Ishida, T. Nakajima, Y. Honda, O. Kitao, H. Nakai, 
 T. Vreven, K. Throssell, J. A. Montgomery, Jr., J. E. Peralta, 
 F. Ogliaro, M. J. Bearpark, J. J. Heyd, E. N. Brothers, K. N. Kudin, 
 V. N. Staroverov, T. A. Keith, R. Kobayashi, J. Normand, 
 K. Raghavachari, A. P. Rendell, J. C. Burant, S. S. Iyengar, 
 J. Tomasi, M. Cossi, J. M. Millam, M. Klene, C. Adamo, R. Cammi, 
 J. W. Ochterski, R. L. Martin, K. Morokuma, O. Farkas, 
 J. B. Foresman, and D. J. Fox, Gaussian, Inc., Wallingford CT, 2016.
 
 ******************************************
 Gaussian 16:  ES64L-G16RevA.03 25-Dec-2016
                27-Jan-2023 
 ******************************************
 %nprocs=12
 Will use up to   12 processors via shared memory.
 %mem=16GB
 %chk=6xcx_II_S.chk
 ----------------------------------------------------------------------
 # PBE1PBE/def2TZVP empiricaldispersion=GD3BJ int=(grid=ultrafine) pola
 r
 ----------------------------------------------------------------------
 1/38=1,172=1/1;
 2/12=2,17=6,18=5,40=1/2;
 3/5=44,7=101,11=2,25=1,30=1,74=-13,75=-5,124=41/1,2,3;
 4//1;
 5/5=2,38=5,98=1/2;
 8/6=4,10=90,11=11/1;
 10/6=1,13=10/2;
 6/7=2,8=2,9=2,10=2,28=1/1;
 99/5=1,9=1/99;
 ---------
 6xcx_II_S
 ---------
 Symbolic Z-matrix:
 Charge =  0 Multiplicity = 1
 Fe                   -0.149     17.275    21.799 
 C                     1.738     14.598    20.888 
 C                    -0.94      15.608    24.807 
 C                    -1.399     20.189    23.203 
 C                     0.646     18.94     18.997 
 N                     0.235     15.5      22.643 
 C                     1.129     14.579    22.118 
 C                     1.349     13.54     23.049 
 C                     0.602     13.815    24.144 
 C                    -0.083     15.025    23.899 
 C                     0.515     12.984    25.401 
 C                     2.234     12.33     22.867 
 C                     3.568     12.525    23.589 
 C                     4.255     11.201    23.822 
 O                     5.429     11.197    24.251 
 O                     3.664     10.114    23.604 
 N                    -0.984     17.779    23.668 
 C                    -1.24      16.966    24.702 
 C                    -1.864     17.684    25.762 
 C                    -2.015     18.968    25.346 
 C                    -1.446     19.015    23.968 
 C                    -2.292     17.149    27.107 
 C                    -2.615     20.058    26.153 
 C                    -3.376     21.013    25.61 
 N                    -0.39      19.25     21.192 
 C                    -0.834     20.295    21.935 
 C                    -0.643     21.481    21.2 
 C                    -0.059     21.133    19.979 
 C                     0.107     19.712    20.001 
 C                    -1.02      22.857    21.687 
 C                     0.336     22.037    18.873 
 C                    -0.414     23.057    18.457 
 N                     0.961     16.858    20.33 
 C                     1.133     17.646    19.249 
 C                     2.016     16.99     18.273 
 C                     2.323     15.786    18.788 
 C                     1.635     15.717    20.086 
 C                     2.463     17.573    16.956 
 C                     3.205     14.718    18.175 
 C                     4.686     15.12     18.225 
 C                     5.578     13.974    17.794 
 O                     6.628     13.72     18.427 
 O                     5.282     13.278    16.797 
 C                    -1.971     15.532    19.494 
 S                    -2.52      16.587    20.839 
 H                     5.19745   12.83204   16.27232 
 H                     4.28914   9.38928   23.67869 
 H                    -0.29985   23.56804   21.33956 
 H                    -1.98742   23.11602   21.31031 
 H                    -1.0403    22.86358   22.75679 
 H                     0.14829   23.65733   17.77265 
 H                    -1.28756   22.68077   17.96686 
 H                     1.27118   21.86173   18.38348 
 H                    -3.09438   21.96434   26.01067 
 H                    -3.23874   21.01813   24.54885 
 H                    -2.43218   20.08061   27.20702 
 H                    -2.85406   16.24883   26.97036 
 H                    -2.89925   17.87675   27.60351 
 H                    -1.42608   16.94218   27.70056 
 H                     0.52814   13.62762   26.25568 
 H                     1.3493    12.3155   25.44507 
 H                    -0.39412   12.41978   25.39335 
 H                     4.18723   13.31888   23.22676 
 H                     3.56008   13.20289   24.41683 
 H                     2.28632   11.92677   21.87727 
 H                     1.76371   11.37697   22.99134 
 H                     4.9978    15.65449   19.09793 
 H                     4.92556   16.07987   17.81737 
 H                     2.98425   13.71001   18.45808 
 H                     2.86373   14.30443   17.24905 
 H                     3.19184   16.92904   16.50991 
 H                     2.89355   18.53853   17.12114 
 H                     1.62077   17.66509   16.3025 
 H                    -1.9559    14.51385   19.82269 
 H                    -2.64277   15.62986   18.66693 
 H                    -2.92057   17.35677   21.82037 
 H                    -1.37363   15.02113   25.58959 
 H                     2.29182   13.74667   20.55122 
 H                     0.69529   19.33354   18.00322 
 H                    -1.83074   21.07173   23.62643 
 H                    -0.98714   15.82354   19.1908 
 
 Stoichiometry    C35H36FeN4O4S
 Framework group  C1[X(C35H36FeN4O4S)]
 Deg. of freedom   237
 Full point group                 C1      NOp   1
 Largest Abelian subgroup         C1      NOp   1
 Largest concise Abelian subgroup C1      NOp   1
                         Standard orientation:                         
 ---------------------------------------------------------------------
 Center     Atomic      Atomic             Coordinates (Angstroms)
 Number     Number       Type             X           Y           Z
 ---------------------------------------------------------------------
      1         26           0        1.017703   -0.050158    0.309016
      2          6           0       -2.371938    0.104599    0.517352
      3          6           0        0.793846   -3.571069    0.384597
      4          6           0        4.314184   -0.382362   -0.714685
      5          6           0        1.279219    3.290341    0.141297
      6          7           0       -0.423572   -1.430029    0.479609
      7          6           0       -1.777532   -1.131142    0.455966
      8          6           0       -2.530140   -2.323041    0.368557
      9          6           0       -1.651954   -3.352724    0.333885
     10          6           0       -0.351946   -2.805702    0.397887
     11          6           0       -1.994620   -4.819788    0.241794
     12          6           0       -4.034875   -2.446607    0.337722
     13          6           0       -4.527607   -2.670787   -1.092601
     14          6           0       -5.920117   -3.253972   -1.099335
     15          8           0       -6.532357   -3.343011   -2.185414
     16          8           0       -6.461508   -3.657990   -0.040072
     17          7           0        2.282867   -1.685161   -0.103938
     18          6           0        2.009368   -2.990861    0.022583
     19          6           0        3.153036   -3.776311   -0.299269
     20          6           0        4.159769   -2.917485   -0.604917
     21          6           0        3.581023   -1.550265   -0.461336
     22          6           0        3.261031   -5.281870   -0.307315
     23          6           0        5.528214   -3.321339   -1.009402
     24          6           0        6.614256   -2.637312   -0.637093
     25          7           0        2.578036    1.239890   -0.168782
     26          6           0        3.806023    0.911870   -0.643819
     27          6           0        4.469262    2.093848   -1.026368
     28          6           0        3.605311    3.163691   -0.777317
     29          6           0        2.403318    2.597220   -0.246655
     30          6           0        5.863967    2.143661   -1.596448
     31          6           0        3.852861    4.604333   -1.021750
     32          6           0        5.008709    5.206641   -0.743908
     33          7           0       -0.261835    1.337842    0.295382
     34          6           0        0.032461    2.653742    0.265575
     35          6           0       -1.199391    3.454899    0.322931
     36          6           0       -2.216202    2.580755    0.428078
     37          6           0       -1.600241    1.245295    0.421066
     38          6           0       -1.275563    4.960448    0.281618
     39          6           0       -3.695445    2.892999    0.521153
     40          6           0       -4.249544    3.379652   -0.825550
     41          6           0       -5.758791    3.502548   -0.783024
     42          8           0       -6.451307    3.100759   -1.745672
     43          8           0       -6.327380    4.015680    0.206645
     44          6           0        0.272954    0.801046    3.532610
     45         16           0        1.692498   -0.076330    2.870374
     46          1           0       -6.730953    4.270261    0.710270
     47          1           0       -7.382016   -3.869641   -0.211738
     48          1           0        5.921504    2.919492   -2.331074
     49          1           0        6.563210    2.343167   -0.811492
     50          1           0        6.097100    1.203679   -2.051401
     51          1           0        5.005453    6.193164   -1.158228
     52          1           0        5.134067    5.265800    0.317075
     53          1           0        3.063166    5.190822   -1.442835
     54          1           0        7.270085   -2.525612   -1.475133
     55          1           0        6.322689   -1.671303   -0.281121
     56          1           0        5.650295   -4.190930   -1.620801
     57          1           0        2.864598   -5.672778    0.606431
     58          1           0        4.288617   -5.565251   -0.400383
     59          1           0        2.706432   -5.674824   -1.133697
     60          1           0       -1.327979   -5.299392   -0.444114
     61          1           0       -3.001425   -4.929911   -0.103339
     62          1           0       -1.897376   -5.270076    1.207550
     63          1           0       -4.348653   -1.872519   -1.782270
     64          1           0       -3.827183   -3.117849   -1.766725
     65          1           0       -4.580117   -1.733055    0.919492
     66          1           0       -4.474224   -3.065588    1.091866
     67          1           0       -3.841307    2.912323   -1.697242
     68          1           0       -3.725323    4.193042   -1.282155
     69          1           0       -4.293480    2.173493    1.040350
     70          1           0       -4.002631    3.449589    1.381818
     71          1           0       -2.299692    5.264200    0.220026
     72          1           0       -0.744476    5.321085   -0.574413
     73          1           0       -0.836566    5.364291    1.169927
     74          1           0       -0.463570    0.095346    3.855749
     75          1           0        0.580396    1.401331    4.363295
     76          1           0        2.728260   -0.716501    2.387177
     77          1           0        0.751187   -4.606501    0.650979
     78          1           0       -3.431977    0.183691    0.639667
     79          1           0        1.356254    4.336391    0.352824
     80          1           0        5.343853   -0.494395   -0.983259
     81          1           0       -0.143966    1.429350    2.773459
 ---------------------------------------------------------------------
 Rotational constants (GHZ):           0.0800601           0.0515527           0.0348954
 Standard basis: def2TZVP (5D, 7F)
 There are  1858 symmetry adapted cartesian basis functions of A   symmetry.
 There are  1631 symmetry adapted basis functions of A   symmetry.
  1631 basis functions,  2652 primitive gaussians,  1858 cartesian basis functions
   174 alpha electrons      174 beta electrons
       nuclear repulsion energy      6510.1900794815 Hartrees.
 NAtoms=   81 NActive=   81 NUniq=   81 SFac= 1.00D+00 NAtFMM=   60 NAOKFM=T Big=T
 Integral buffers will be    131072 words long.
 Raffenetti 2 integral format.
 Two-electron integral symmetry is turned on.
 Nuclear repulsion after empirical dispersion term =     6510.0742202631 Hartrees.
 One-electron integrals computed using PRISM.
   1 Symmetry operations used in ECPInt.
 ECPInt:  NShTT=  208335 NPrTT=  650379 LenC2=  150287 LenP2D=  305724.
 LDataN:  DoStor=T MaxTD1= 6 Len=  172
 NBasis=  1631 RedAO= T EigKep=  3.10D-06  NBF=  1631
 NBsUse=  1631 1.00D-06 EigRej= -1.00D+00 NBFU=  1631
 ExpMin= 4.20D-02 ExpMax= 3.01D+05 ExpMxC= 2.91D+03 IAcc=3 IRadAn=         5 AccDes= 0.00D+00
 Harris functional with IExCor= 1009 and IRadAn=       5 diagonalized for initial guess.
 HarFok:  IExCor= 1009 AccDes= 0.00D+00 IRadAn=         5 IDoV= 1 UseB2=F ITyADJ=14
 ICtDFT=  3500011 ScaDFX=  1.000000  1.000000  1.000000  1.000000
 FoFCou: FMM=F IPFlag=           0 FMFlag=      100000 FMFlg1=        2001
         NFxFlg=           0 DoJE=T BraDBF=F KetDBF=T FulRan=T
         wScrn=  0.000000 ICntrl=       500 IOpCl=  0 I1Cent=   200000004 NGrid=           0
         NMat0=    1 NMatS0=      1 NMatT0=    0 NMatD0=    1 NMtDS0=    0 NMtDT0=    0
 Petite list used in FoFCou.
 Requested convergence on RMS density matrix=1.00D-08 within 128 cycles.
 Requested convergence on MAX density matrix=1.00D-06.
 Requested convergence on             energy=1.00D-06.
 No special actions if energy rises.
 EnCoef did    28 forward-backward iterations
 EnCoef did   100 forward-backward iterations
 EnCoef did    13 forward-backward iterations
 Restarting incremental Fock formation.
 SCF Done:  E(RPBE1PBE) =  -3535.06804236     A.U. after   28 cycles
            NFock= 28  Conv=0.33D-08     -V/T= 2.0026
 DoSCS=F DFT=T ScalE2(SS,OS)=  1.000000  1.000000
 Range of M.O.s used for correlation:     1  1631
 NBasis=  1631 NAE=   174 NBE=   174 NFC=     0 NFV=     0
 NROrb=   1631 NOA=   174 NOB=   174 NVA=  1457 NVB=  1457

 **** Warning!!: The largest alpha MO coefficient is  0.45042092D+02


 **** Warning!!: The smallest alpha delta epsilon is  0.89902946D-01

          Differentiating once with respect to electric field.
                with respect to dipole field.
          Electric field/nuclear overlap derivatives assumed to be zero.
          There are     3 degrees of freedom in the 1st order CPHF.  IDoFFX=0 NUNeed=     3.
      3 vectors produced by pass  0 Test12= 8.45D-12 3.33D-08 XBig12= 1.85D+03 2.66D+01.
 AX will form     3 AO Fock derivatives at one time.
      3 vectors produced by pass  1 Test12= 8.45D-12 3.33D-08 XBig12= 1.21D+03 8.49D+00.
      3 vectors produced by pass  2 Test12= 8.45D-12 3.33D-08 XBig12= 3.33D+02 4.13D+00.
      3 vectors produced by pass  3 Test12= 8.45D-12 3.33D-08 XBig12= 2.80D+02 3.64D+00.
      3 vectors produced by pass  4 Test12= 8.45D-12 3.33D-08 XBig12= 1.49D+02 2.71D+00.
      3 vectors produced by pass  5 Test12= 8.45D-12 3.33D-08 XBig12= 5.91D+01 1.89D+00.
      3 vectors produced by pass  6 Test12= 8.45D-12 3.33D-08 XBig12= 3.73D+01 1.53D+00.
      3 vectors produced by pass  7 Test12= 8.45D-12 3.33D-08 XBig12= 2.70D+01 1.80D+00.
      3 vectors produced by pass  8 Test12= 8.45D-12 3.33D-08 XBig12= 1.54D+01 1.36D+00.
      3 vectors produced by pass  9 Test12= 8.45D-12 3.33D-08 XBig12= 1.05D+01 1.03D+00.
      3 vectors produced by pass 10 Test12= 8.45D-12 3.33D-08 XBig12= 3.98D+00 4.22D-01.
      3 vectors produced by pass 11 Test12= 8.45D-12 3.33D-08 XBig12= 1.65D+00 2.17D-01.
      3 vectors produced by pass 12 Test12= 8.45D-12 3.33D-08 XBig12= 6.23D-01 1.56D-01.
      3 vectors produced by pass 13 Test12= 8.45D-12 3.33D-08 XBig12= 2.22D-01 1.32D-01.
      3 vectors produced by pass 14 Test12= 8.45D-12 3.33D-08 XBig12= 1.08D-01 7.54D-02.
      3 vectors produced by pass 15 Test12= 8.45D-12 3.33D-08 XBig12= 2.72D-02 3.14D-02.
      3 vectors produced by pass 16 Test12= 8.45D-12 3.33D-08 XBig12= 1.23D-02 1.68D-02.
      3 vectors produced by pass 17 Test12= 8.45D-12 3.33D-08 XBig12= 3.15D-03 1.31D-02.
      3 vectors produced by pass 18 Test12= 8.45D-12 3.33D-08 XBig12= 1.05D-03 9.73D-03.
      3 vectors produced by pass 19 Test12= 8.45D-12 3.33D-08 XBig12= 2.79D-04 5.25D-03.
      3 vectors produced by pass 20 Test12= 8.45D-12 3.33D-08 XBig12= 6.40D-05 2.04D-03.
      3 vectors produced by pass 21 Test12= 8.45D-12 3.33D-08 XBig12= 1.72D-05 8.83D-04.
      3 vectors produced by pass 22 Test12= 8.45D-12 3.33D-08 XBig12= 3.46D-06 4.17D-04.
      3 vectors produced by pass 23 Test12= 8.45D-12 3.33D-08 XBig12= 7.72D-07 2.00D-04.
      3 vectors produced by pass 24 Test12= 8.45D-12 3.33D-08 XBig12= 1.93D-07 8.53D-05.
      3 vectors produced by pass 25 Test12= 8.45D-12 3.33D-08 XBig12= 3.62D-08 4.49D-05.
      3 vectors produced by pass 26 Test12= 8.45D-12 3.33D-08 XBig12= 8.72D-09 1.61D-05.
      3 vectors produced by pass 27 Test12= 8.45D-12 3.33D-08 XBig12= 1.33D-09 6.35D-06.
      3 vectors produced by pass 28 Test12= 8.45D-12 3.33D-08 XBig12= 2.23D-10 2.29D-06.
      3 vectors produced by pass 29 Test12= 8.45D-12 3.33D-08 XBig12= 3.96D-11 9.63D-07.
      3 vectors produced by pass 30 Test12= 8.45D-12 3.33D-08 XBig12= 5.88D-12 5.86D-07.
      3 vectors produced by pass 31 Test12= 8.45D-12 3.33D-08 XBig12= 1.91D-12 1.55D-07.
      3 vectors produced by pass 32 Test12= 8.45D-12 3.33D-08 XBig12= 6.11D-13 9.77D-08.
      2 vectors produced by pass 33 Test12= 8.45D-12 3.33D-08 XBig12= 4.42D-13 5.53D-08.
 InvSVY:  IOpt=1 It=  1 EMax= 1.78D-14
 Solved reduced A of dimension   101 with     3 vectors.
 Isotropic polarizability for W=    0.000000      614.70 Bohr**3.
 End of Minotr F.D. properties file   721 does not exist.
 End of Minotr F.D. properties file   722 does not exist.
 End of Minotr F.D. properties file   788 does not exist.

 **********************************************************************

            Population analysis using the SCF density.

 **********************************************************************

 Orbital symmetries:
       Occupied  (A) (A) (A) (A) (A) (A) (A) (A) (A) (A) (A) (A)
                 (A) (A) (A) (A) (A) (A) (A) (A) (A) (A) (A) (A)
                 (A) (A) (A) (A) (A) (A) (A) (A) (A) (A) (A) (A)
                 (A) (A) (A) (A) (A) (A) (A) (A) (A) (A) (A) (A)
                 (A) (A) (A) (A) (A) (A) (A) (A) (A) (A) (A) (A)
                 (A) (A) (A) (A) (A) (A) (A) (A) (A) (A) (A) (A)
                 (A) (A) (A) (A) (A) (A) (A) (A) (A) (A) (A) (A)
                 (A) (A) (A) (A) (A) (A) (A) (A) (A) (A) (A) (A)
                 (A) (A) (A) (A) (A) (A) (A) (A) (A) (A) (A) (A)
                 (A) (A) (A) (A) (A) (A) (A) (A) (A) (A) (A) (A)
                 (A) (A) (A) (A) (A) (A) (A) (A) (A) (A) (A) (A)
                 (A) (A) (A) (A) (A) (A) (A) (A) (A) (A) (A) (A)
                 (A) (A) (A) (A) (A) (A) (A) (A) (A) (A) (A) (A)
                 (A) (A) (A) (A) (A) (A) (A) (A) (A) (A) (A) (A)
                 (A) (A) (A) (A) (A) (A)
       Virtual   (A) (A) (A) (A) (A) (A) (A) (A) (A) (A) (A) (A)
                 (A) (A) (A) (A) (A) (A) (A) (A) (A) (A) (A) (A)
                 (A) (A) (A) (A) (A) (A) (A) (A) (A) (A) (A) (A)
                 (A) (A) (A) (A) (A) (A) (A) (A) (A) (A) (A) (A)
                 (A) (A) (A) (A) (A) (A) (A) (A) (A) (A) (A) (A)
                 (A) (A) (A) (A) (A) (A) (A) (A) (A) (A) (A) (A)
                 (A) (A) (A) (A) (A) (A) (A) (A) (A) (A) (A) (A)
                 (A) (A) (A) (A) (A) (A) (A) (A) (A) (A) (A) (A)
                 (A) (A) (A) (A) (A) (A) (A) (A) (A) (A) (A) (A)
                 (A) (A) (A) (A) (A) (A) (A) (A) (A) (A) (A) (A)
                 (A) (A) (A) (A) (A) (A) (A) (A) (A) (A) (A) (A)
                 (A) (A) (A) (A) (A) (A) (A) (A) (A) (A) (A) (A)
                 (A) (A) (A) (A) (A) (A) (A) (A) (A) (A) (A) (A)
                 (A) (A) (A) (A) (A) (A) (A) (A) (A) (A) (A) (A)
                 (A) (A) (A) (A) (A) (A) (A) (A) (A) (A) (A) (A)
                 (A) (A) (A) (A) (A) (A) (A) (A) (A) (A) (A) (A)
                 (A) (A) (A) (A) (A) (A) (A) (A) (A) (A) (A) (A)
                 (A) (A) (A) (A) (A) (A) (A) (A) (A) (A) (A) (A)
                 (A) (A) (A) (A) (A) (A) (A) (A) (A) (A) (A) (A)
                 (A) (A) (A) (A) (A) (A) (A) (A) (A) (A) (A) (A)
                 (A) (A) (A) (A) (A) (A) (A) (A) (A) (A) (A) (A)
                 (A) (A) (A) (A) (A) (A) (A) (A) (A) (A) (A) (A)
                 (A) (A) (A) (A) (A) (A) (A) (A) (A) (A) (A) (A)
                 (A) (A) (A) (A) (A) (A) (A) (A) (A) (A) (A) (A)
                 (A) (A) (A) (A) (A) (A) (A) (A) (A) (A) (A) (A)
                 (A) (A) (A) (A) (A) (A) (A) (A) (A) (A) (A) (A)
                 (A) (A) (A) (A) (A) (A) (A) (A) (A) (A) (A) (A)
                 (A) (A) (A) (A) (A) (A) (A) (A) (A) (A) (A) (A)
                 (A) (A) (A) (A) (A) (A) (A) (A) (A) (A) (A) (A)
                 (A) (A) (A) (A) (A) (A) (A) (A) (A) (A) (A) (A)
                 (A) (A) (A) (A) (A) (A) (A) (A) (A) (A) (A) (A)
                 (A) (A) (A) (A) (A) (A) (A) (A) (A) (A) (A) (A)
                 (A) (A) (A) (A) (A) (A) (A) (A) (A) (A) (A) (A)
                 (A) (A) (A) (A) (A) (A) (A) (A) (A) (A) (A) (A)
                 (A) (A) (A) (A) (A) (A) (A) (A) (A) (A) (A) (A)
                 (A) (A) (A) (A) (A) (A) (A) (A) (A) (A) (A) (A)
                 (A) (A) (A) (A) (A) (A) (A) (A) (A) (A) (A) (A)
                 (A) (A) (A) (A) (A) (A) (A) (A) (A) (A) (A) (A)
                 (A) (A) (A) (A) (A) (A) (A) (A) (A) (A) (A) (A)
                 (A) (A) (A) (A) (A) (A) (A) (A) (A) (A) (A) (A)
                 (A) (A) (A) (A) (A) (A) (A) (A) (A) (A) (A) (A)
                 (A) (A) (A) (A) (A) (A) (A) (A) (A) (A) (A) (A)
                 (A) (A) (A) (A) (A) (A) (A) (A) (A) (A) (A) (A)
                 (A) (A) (A) (A) (A) (A) (A) (A) (A) (A) (A) (A)
                 (A) (A) (A) (A) (A) (A) (A) (A) (A) (A) (A) (A)
                 (A) (A) (A) (A) (A) (A) (A) (A) (A) (A) (A) (A)
                 (A) (A) (A) (A) (A) (A) (A) (A) (A) (A) (A) (A)
                 (A) (A) (A) (A) (A) (A) (A) (A) (A) (A) (A) (A)
                 (A) (A) (A) (A) (A) (A) (A) (A) (A) (A) (A) (A)
                 (A) (A) (A) (A) (A) (A) (A) (A) (A) (A) (A) (A)
                 (A) (A) (A) (A) (A) (A) (A) (A) (A) (A) (A) (A)
                 (A) (A) (A) (A) (A) (A) (A) (A) (A) (A) (A) (A)
                 (A) (A) (A) (A) (A) (A) (A) (A) (A) (A) (A) (A)
                 (A) (A) (A) (A) (A) (A) (A) (A) (A) (A) (A) (A)
                 (A) (A) (A) (A) (A) (A) (A) (A) (A) (A) (A) (A)
                 (A) (A) (A) (A) (A) (A) (A) (A) (A) (A) (A) (A)
                 (A) (A) (A) (A) (A) (A) (A) (A) (A) (A) (A) (A)
                 (A) (A) (A) (A) (A) (A) (A) (A) (A) (A) (A) (A)
                 (A) (A) (A) (A) (A) (A) (A) (A) (A) (A) (A) (A)
                 (A) (A) (A) (A) (A) (A) (A) (A) (A) (A) (A) (A)
                 (A) (A) (A) (A) (A) (A) (A) (A) (A) (A) (A) (A)
                 (A) (A) (A) (A) (A) (A) (A) (A) (A) (A) (A) (A)
                 (A) (A) (A) (A) (A) (A) (A) (A) (A) (A) (A) (A)
                 (A) (A) (A) (A) (A) (A) (A) (A) (A) (A) (A) (A)
                 (A) (A) (A) (A) (A) (A) (A) (A) (A) (A) (A) (A)
                 (A) (A) (A) (A) (A) (A) (A) (A) (A) (A) (A) (A)
                 (A) (A) (A) (A) (A) (A) (A) (A) (A) (A) (A) (A)
                 (A) (A) (A) (A) (A) (A) (A) (A) (A) (A) (A) (A)
                 (A) (A) (A) (A) (A) (A) (A) (A) (A) (A) (A) (A)
                 (A) (A) (A) (A) (A) (A) (A) (A) (A) (A) (A) (A)
                 (A) (A) (A) (A) (A) (A) (A) (A) (A) (A) (A) (A)
                 (A) (A) (A) (A) (A) (A) (A) (A) (A) (A) (A) (A)
                 (A) (A) (A) (A) (A) (A) (A) (A) (A) (A) (A) (A)
                 (A) (A) (A) (A) (A) (A) (A) (A) (A) (A) (A) (A)
                 (A) (A) (A) (A) (A) (A) (A) (A) (A) (A) (A) (A)
                 (A) (A) (A) (A) (A) (A) (A) (A) (A) (A) (A) (A)
                 (A) (A) (A) (A) (A) (A) (A) (A) (A) (A) (A) (A)
                 (A) (A) (A) (A) (A) (A) (A) (A) (A) (A) (A) (A)
                 (A) (A) (A) (A) (A) (A) (A) (A) (A) (A) (A) (A)
                 (A) (A) (A) (A) (A) (A) (A) (A) (A) (A) (A) (A)
                 (A) (A) (A) (A) (A) (A) (A) (A) (A) (A) (A) (A)
                 (A) (A) (A) (A) (A) (A) (A) (A) (A) (A) (A) (A)
                 (A) (A) (A) (A) (A) (A) (A) (A) (A) (A) (A) (A)
                 (A) (A) (A) (A) (A) (A) (A) (A) (A) (A) (A) (A)
                 (A) (A) (A) (A) (A) (A) (A) (A) (A) (A) (A) (A)
                 (A) (A) (A) (A) (A) (A) (A) (A) (A) (A) (A) (A)
                 (A) (A) (A) (A) (A) (A) (A) (A) (A) (A) (A) (A)
                 (A) (A) (A) (A) (A) (A) (A) (A) (A) (A) (A) (A)
                 (A) (A) (A) (A) (A) (A) (A) (A) (A) (A) (A) (A)
                 (A) (A) (A) (A) (A) (A) (A) (A) (A) (A) (A) (A)
                 (A) (A) (A) (A) (A) (A) (A) (A) (A) (A) (A) (A)
                 (A) (A) (A) (A) (A) (A) (A) (A) (A) (A) (A) (A)
                 (A) (A) (A) (A) (A) (A) (A) (A) (A) (A) (A) (A)
                 (A) (A) (A) (A) (A) (A) (A) (A) (A) (A) (A) (A)
                 (A) (A) (A) (A) (A) (A) (A) (A) (A) (A) (A) (A)
                 (A) (A) (A) (A) (A) (A) (A) (A) (A) (A) (A) (A)
                 (A) (A) (A) (A) (A) (A) (A) (A) (A) (A) (A) (A)
                 (A) (A) (A) (A) (A) (A) (A) (A) (A) (A) (A) (A)
                 (A) (A) (A) (A) (A) (A) (A) (A) (A) (A) (A) (A)
                 (A) (A) (A) (A) (A) (A) (A) (A) (A) (A) (A) (A)
                 (A) (A) (A) (A) (A) (A) (A) (A) (A) (A) (A) (A)
                 (A) (A) (A) (A) (A) (A) (A) (A) (A) (A) (A) (A)
                 (A) (A) (A) (A) (A) (A) (A) (A) (A) (A) (A) (A)
                 (A) (A) (A) (A) (A) (A) (A) (A) (A) (A) (A) (A)
                 (A) (A) (A) (A) (A) (A) (A) (A) (A) (A) (A) (A)
                 (A) (A) (A) (A) (A) (A) (A) (A) (A) (A) (A) (A)
                 (A) (A) (A) (A) (A) (A) (A) (A) (A) (A) (A) (A)
                 (A) (A) (A) (A) (A) (A) (A) (A) (A) (A) (A) (A)
                 (A) (A) (A) (A) (A) (A) (A) (A) (A) (A) (A) (A)
                 (A) (A) (A) (A) (A) (A) (A) (A) (A) (A) (A) (A)
                 (A) (A) (A) (A) (A) (A) (A) (A) (A) (A) (A) (A)
                 (A) (A) (A) (A) (A) (A) (A) (A) (A) (A) (A) (A)
                 (A) (A) (A) (A) (A) (A) (A) (A) (A) (A) (A) (A)
                 (A) (A) (A) (A) (A) (A) (A) (A) (A) (A) (A) (A)
                 (A) (A) (A) (A) (A) (A) (A) (A) (A) (A) (A) (A)
                 (A) (A) (A) (A) (A) (A) (A) (A) (A) (A) (A) (A)
                 (A) (A) (A) (A) (A) (A) (A) (A) (A) (A) (A) (A)
                 (A) (A) (A) (A) (A) (A) (A) (A) (A) (A) (A) (A)
                 (A) (A) (A) (A) (A) (A) (A) (A) (A) (A) (A) (A)
                 (A) (A) (A) (A) (A) (A) (A) (A) (A) (A) (A) (A)
                 (A) (A) (A) (A) (A) (A) (A) (A) (A) (A) (A) (A)
                 (A) (A) (A) (A) (A)
 The electronic state is 1-A.
 Alpha  occ. eigenvalues -- -256.33738 -89.02140 -30.10262 -25.93203 -25.92706
 Alpha  occ. eigenvalues --  -25.92660 -19.27520 -19.24221 -19.17397 -19.17140
 Alpha  occ. eigenvalues --  -14.39675 -14.38825 -14.38498 -14.37848 -10.37658
 Alpha  occ. eigenvalues --  -10.35484 -10.30138 -10.26450 -10.26190 -10.25951
 Alpha  occ. eigenvalues --  -10.25340 -10.25069 -10.25058 -10.24976 -10.24919
 Alpha  occ. eigenvalues --  -10.24548 -10.24496 -10.24151 -10.23865 -10.23833
 Alpha  occ. eigenvalues --  -10.23543 -10.23430 -10.23267 -10.23249 -10.23244
 Alpha  occ. eigenvalues --  -10.23147 -10.23108 -10.22918 -10.22828 -10.22823
 Alpha  occ. eigenvalues --  -10.22528 -10.22355 -10.22262 -10.22179 -10.21796
 Alpha  occ. eigenvalues --  -10.21495 -10.20608 -10.20114 -10.19849  -8.00593
 Alpha  occ. eigenvalues --   -5.94336  -5.93798  -5.93560  -3.45375  -2.21746
 Alpha  occ. eigenvalues --   -2.20602  -2.20398  -1.21020  -1.18270  -1.03801
 Alpha  occ. eigenvalues --   -1.02043  -1.00352  -0.99554  -0.98211  -0.97677
 Alpha  occ. eigenvalues --   -0.86112  -0.85148  -0.84594  -0.83832  -0.83471
 Alpha  occ. eigenvalues --   -0.83133  -0.83072  -0.82316  -0.82229  -0.80133
 Alpha  occ. eigenvalues --   -0.79632  -0.78584  -0.77909  -0.76799  -0.75037
 Alpha  occ. eigenvalues --   -0.73744  -0.72482  -0.71787  -0.70366  -0.70218
 Alpha  occ. eigenvalues --   -0.69987  -0.69723  -0.67878  -0.66984  -0.66625
 Alpha  occ. eigenvalues --   -0.62199  -0.61517  -0.59915  -0.59677  -0.58322
 Alpha  occ. eigenvalues --   -0.56895  -0.56299  -0.55202  -0.54664  -0.53459
 Alpha  occ. eigenvalues --   -0.52986  -0.52591  -0.52422  -0.51131  -0.50528
 Alpha  occ. eigenvalues --   -0.50219  -0.49975  -0.49701  -0.49451  -0.49316
 Alpha  occ. eigenvalues --   -0.48997  -0.48586  -0.48033  -0.47831  -0.47244
 Alpha  occ. eigenvalues --   -0.46643  -0.46568  -0.46315  -0.45797  -0.45523
 Alpha  occ. eigenvalues --   -0.45042  -0.44660  -0.44593  -0.44402  -0.44054
 Alpha  occ. eigenvalues --   -0.43416  -0.42940  -0.42756  -0.42587  -0.42339
 Alpha  occ. eigenvalues --   -0.41992  -0.41666  -0.41155  -0.40829  -0.40761
 Alpha  occ. eigenvalues --   -0.40459  -0.40396  -0.40243  -0.39801  -0.39355
 Alpha  occ. eigenvalues --   -0.39114  -0.38390  -0.38048  -0.37471  -0.37099
 Alpha  occ. eigenvalues --   -0.36864  -0.36628  -0.35893  -0.35090  -0.34653
 Alpha  occ. eigenvalues --   -0.33871  -0.33424  -0.32967  -0.31966  -0.31627
 Alpha  occ. eigenvalues --   -0.31596  -0.30674  -0.29928  -0.29578  -0.28964
 Alpha  occ. eigenvalues --   -0.28595  -0.28426  -0.28181  -0.27505  -0.26949
 Alpha  occ. eigenvalues --   -0.26297  -0.25233  -0.24789  -0.23223  -0.22787
 Alpha  occ. eigenvalues --   -0.21585  -0.20939  -0.20798  -0.19924
 Alpha virt. eigenvalues --   -0.10934  -0.08958  -0.08207  -0.05157  -0.04476
 Alpha virt. eigenvalues --   -0.02728  -0.00519   0.00161   0.00751   0.01891
 Alpha virt. eigenvalues --    0.02688   0.03117   0.03553   0.04209   0.04649
 Alpha virt. eigenvalues --    0.04839   0.05557   0.05715   0.06020   0.06425
 Alpha virt. eigenvalues --    0.06876   0.07164   0.07337   0.07578   0.07759
 Alpha virt. eigenvalues --    0.08124   0.08465   0.08931   0.09222   0.09314
 Alpha virt. eigenvalues --    0.09748   0.09928   0.10058   0.10353   0.10491
 Alpha virt. eigenvalues --    0.10849   0.11160   0.11416   0.11989   0.12090
 Alpha virt. eigenvalues --    0.12217   0.12620   0.12741   0.12877   0.13046
 Alpha virt. eigenvalues --    0.13333   0.13570   0.14163   0.14367   0.14461
 Alpha virt. eigenvalues --    0.14612   0.14766   0.14926   0.15114   0.15332
 Alpha virt. eigenvalues --    0.15527   0.15671   0.15913   0.16080   0.16249
 Alpha virt. eigenvalues --    0.16520   0.17015   0.17333   0.17828   0.18036
 Alpha virt. eigenvalues --    0.18350   0.18413   0.18699   0.18908   0.19333
 Alpha virt. eigenvalues --    0.19820   0.19997   0.20160   0.20616   0.20784
 Alpha virt. eigenvalues --    0.20971   0.21044   0.21629   0.21641   0.22083
 Alpha virt. eigenvalues --    0.22491   0.22612   0.22987   0.23108   0.23178
 Alpha virt. eigenvalues --    0.23343   0.23762   0.23952   0.24225   0.24463
 Alpha virt. eigenvalues --    0.24686   0.24932   0.25126   0.25295   0.25525
 Alpha virt. eigenvalues --    0.25691   0.25875   0.26244   0.26486   0.26794
 Alpha virt. eigenvalues --    0.27286   0.27487   0.27851   0.28016   0.28338
 Alpha virt. eigenvalues --    0.28454   0.28776   0.28786   0.29049   0.29214
 Alpha virt. eigenvalues --    0.29316   0.29592   0.29692   0.29823   0.30099
 Alpha virt. eigenvalues --    0.30278   0.30883   0.31046   0.31503   0.31830
 Alpha virt. eigenvalues --    0.31968   0.32057   0.32296   0.32713   0.32973
 Alpha virt. eigenvalues --    0.33243   0.33346   0.33890   0.34002   0.34582
 Alpha virt. eigenvalues --    0.34718   0.34784   0.35032   0.35159   0.35490
 Alpha virt. eigenvalues --    0.35685   0.36096   0.36265   0.36578   0.36965
 Alpha virt. eigenvalues --    0.37265   0.37468   0.37554   0.37736   0.37912
 Alpha virt. eigenvalues --    0.38221   0.38396   0.38756   0.38945   0.39090
 Alpha virt. eigenvalues --    0.39167   0.39764   0.39902   0.40128   0.40492
 Alpha virt. eigenvalues --    0.40717   0.40762   0.40939   0.41012   0.41432
 Alpha virt. eigenvalues --    0.41472   0.41829   0.42178   0.42251   0.42305
 Alpha virt. eigenvalues --    0.42521   0.42619   0.42959   0.43040   0.43249
 Alpha virt. eigenvalues --    0.43596   0.43703   0.43986   0.44204   0.44345
 Alpha virt. eigenvalues --    0.44416   0.44597   0.44789   0.45046   0.45341
 Alpha virt. eigenvalues --    0.45534   0.45778   0.46049   0.46261   0.46474
 Alpha virt. eigenvalues --    0.46687   0.46888   0.46987   0.47170   0.47314
 Alpha virt. eigenvalues --    0.47752   0.48027   0.48398   0.48869   0.48973
 Alpha virt. eigenvalues --    0.49080   0.49239   0.49335   0.49439   0.49801
 Alpha virt. eigenvalues --    0.49938   0.50107   0.50125   0.50364   0.50491
 Alpha virt. eigenvalues --    0.50745   0.51174   0.51461   0.51694   0.51813
 Alpha virt. eigenvalues --    0.51976   0.52117   0.52285   0.52370   0.52915
 Alpha virt. eigenvalues --    0.53188   0.53205   0.53553   0.54186   0.54325
 Alpha virt. eigenvalues --    0.54474   0.54642   0.54797   0.55022   0.55104
 Alpha virt. eigenvalues --    0.55477   0.55840   0.56035   0.56543   0.56797
 Alpha virt. eigenvalues --    0.56881   0.57286   0.57446   0.57562   0.58101
 Alpha virt. eigenvalues --    0.58300   0.58664   0.58784   0.58950   0.59642
 Alpha virt. eigenvalues --    0.59869   0.60169   0.60301   0.60451   0.60966
 Alpha virt. eigenvalues --    0.61098   0.61149   0.61285   0.61744   0.61873
 Alpha virt. eigenvalues --    0.62302   0.62754   0.62937   0.63009   0.63294
 Alpha virt. eigenvalues --    0.63631   0.63973   0.64161   0.64378   0.64796
 Alpha virt. eigenvalues --    0.64979   0.65425   0.65702   0.66011   0.66443
 Alpha virt. eigenvalues --    0.66681   0.66838   0.67132   0.67438   0.67683
 Alpha virt. eigenvalues --    0.67918   0.68223   0.68503   0.68993   0.69224
 Alpha virt. eigenvalues --    0.69335   0.69965   0.70014   0.70259   0.70377
 Alpha virt. eigenvalues --    0.70963   0.71420   0.71823   0.72103   0.72570
 Alpha virt. eigenvalues --    0.72840   0.72972   0.73434   0.73717   0.73927
 Alpha virt. eigenvalues --    0.74351   0.74732   0.74966   0.75175   0.75592
 Alpha virt. eigenvalues --    0.75937   0.76188   0.76666   0.76955   0.77213
 Alpha virt. eigenvalues --    0.77586   0.77894   0.78295   0.78566   0.78708
 Alpha virt. eigenvalues --    0.79087   0.79146   0.79571   0.79884   0.80235
 Alpha virt. eigenvalues --    0.80644   0.80828   0.81325   0.81531   0.82359
 Alpha virt. eigenvalues --    0.82636   0.82960   0.83203   0.83651   0.83899
 Alpha virt. eigenvalues --    0.84049   0.84593   0.84911   0.85312   0.85446
 Alpha virt. eigenvalues --    0.85720   0.85851   0.86538   0.87308   0.87464
 Alpha virt. eigenvalues --    0.88017   0.88271   0.88380   0.88577   0.88794
 Alpha virt. eigenvalues --    0.89093   0.89582   0.89778   0.89828   0.90243
 Alpha virt. eigenvalues --    0.90894   0.90981   0.91282   0.91428   0.91697
 Alpha virt. eigenvalues --    0.91885   0.92367   0.92531   0.92820   0.92969
 Alpha virt. eigenvalues --    0.93699   0.93993   0.94192   0.94384   0.94920
 Alpha virt. eigenvalues --    0.95158   0.95342   0.96113   0.96505   0.96779
 Alpha virt. eigenvalues --    0.97403   0.97682   0.98053   0.98137   0.98343
 Alpha virt. eigenvalues --    0.98920   0.99203   0.99468   0.99615   1.00164
 Alpha virt. eigenvalues --    1.00564   1.00619   1.00812   1.01251   1.01972
 Alpha virt. eigenvalues --    1.02233   1.02515   1.02713   1.02915   1.03001
 Alpha virt. eigenvalues --    1.03291   1.03471   1.04085   1.04136   1.04791
 Alpha virt. eigenvalues --    1.05092   1.05337   1.05487   1.06040   1.06361
 Alpha virt. eigenvalues --    1.06829   1.07136   1.07829   1.08221   1.08433
 Alpha virt. eigenvalues --    1.08786   1.09130   1.09642   1.10433   1.10567
 Alpha virt. eigenvalues --    1.10930   1.11028   1.11322   1.11692   1.12018
 Alpha virt. eigenvalues --    1.12663   1.12820   1.13596   1.14040   1.14414
 Alpha virt. eigenvalues --    1.14947   1.15599   1.15869   1.16003   1.17035
 Alpha virt. eigenvalues --    1.17117   1.17727   1.18123   1.18494   1.19246
 Alpha virt. eigenvalues --    1.19576   1.19703   1.20333   1.20637   1.20757
 Alpha virt. eigenvalues --    1.21006   1.21357   1.22156   1.22243   1.22736
 Alpha virt. eigenvalues --    1.23327   1.23506   1.23879   1.24530   1.24643
 Alpha virt. eigenvalues --    1.24986   1.25467   1.25525   1.26044   1.26285
 Alpha virt. eigenvalues --    1.26721   1.27239   1.27343   1.28136   1.28484
 Alpha virt. eigenvalues --    1.29222   1.29699   1.29834   1.30555   1.30698
 Alpha virt. eigenvalues --    1.31058   1.31277   1.32381   1.32930   1.33080
 Alpha virt. eigenvalues --    1.33348   1.34129   1.34507   1.34555   1.35279
 Alpha virt. eigenvalues --    1.35686   1.36031   1.36857   1.37079   1.37426
 Alpha virt. eigenvalues --    1.37660   1.38858   1.38915   1.39701   1.40168
 Alpha virt. eigenvalues --    1.40530   1.40642   1.40939   1.41831   1.42466
 Alpha virt. eigenvalues --    1.42907   1.42945   1.43382   1.43685   1.43871
 Alpha virt. eigenvalues --    1.44482   1.44894   1.45638   1.45862   1.46017
 Alpha virt. eigenvalues --    1.46425   1.46813   1.47227   1.47802   1.48117
 Alpha virt. eigenvalues --    1.48292   1.48462   1.48914   1.49090   1.49762
 Alpha virt. eigenvalues --    1.50093   1.50301   1.50957   1.51308   1.51572
 Alpha virt. eigenvalues --    1.51945   1.52405   1.52642   1.53005   1.53161
 Alpha virt. eigenvalues --    1.53527   1.53989   1.54305   1.54592   1.54739
 Alpha virt. eigenvalues --    1.54943   1.55169   1.55597   1.55935   1.56556
 Alpha virt. eigenvalues --    1.56645   1.57180   1.57652   1.57925   1.58155
 Alpha virt. eigenvalues --    1.58427   1.58510   1.58652   1.59551   1.59698
 Alpha virt. eigenvalues --    1.60104   1.60249   1.60681   1.61182   1.61266
 Alpha virt. eigenvalues --    1.61380   1.61919   1.62062   1.62593   1.62723
 Alpha virt. eigenvalues --    1.62907   1.63287   1.63832   1.63947   1.64556
 Alpha virt. eigenvalues --    1.64616   1.64980   1.65240   1.65377   1.65564
 Alpha virt. eigenvalues --    1.65905   1.66141   1.66427   1.66619   1.67224
 Alpha virt. eigenvalues --    1.67706   1.67800   1.68028   1.68421   1.68483
 Alpha virt. eigenvalues --    1.68923   1.69332   1.69746   1.70134   1.70386
 Alpha virt. eigenvalues --    1.70584   1.71133   1.71333   1.71591   1.72016
 Alpha virt. eigenvalues --    1.72331   1.72457   1.73032   1.73708   1.74278
 Alpha virt. eigenvalues --    1.74637   1.74833   1.75187   1.75523   1.76051
 Alpha virt. eigenvalues --    1.76336   1.76619   1.76937   1.77764   1.78042
 Alpha virt. eigenvalues --    1.78601   1.78963   1.79239   1.79717   1.80176
 Alpha virt. eigenvalues --    1.80760   1.81213   1.81621   1.81944   1.82160
 Alpha virt. eigenvalues --    1.82699   1.83358   1.83822   1.83962   1.84672
 Alpha virt. eigenvalues --    1.85152   1.85774   1.86295   1.86474   1.86817
 Alpha virt. eigenvalues --    1.86956   1.87863   1.88045   1.88678   1.89127
 Alpha virt. eigenvalues --    1.89283   1.89431   1.89736   1.90317   1.91179
 Alpha virt. eigenvalues --    1.91336   1.91858   1.92041   1.92579   1.92710
 Alpha virt. eigenvalues --    1.93036   1.93298   1.93855   1.94064   1.94611
 Alpha virt. eigenvalues --    1.95221   1.95297   1.96028   1.96091   1.96621
 Alpha virt. eigenvalues --    1.96807   1.96951   1.97657   1.97966   1.98292
 Alpha virt. eigenvalues --    1.98687   1.98851   1.99326   1.99756   1.99877
 Alpha virt. eigenvalues --    2.00435   2.00717   2.00922   2.01411   2.01770
 Alpha virt. eigenvalues --    2.02113   2.02367   2.02431   2.03251   2.03563
 Alpha virt. eigenvalues --    2.04109   2.04297   2.05177   2.05660   2.06043
 Alpha virt. eigenvalues --    2.06670   2.06852   2.07131   2.07379   2.07930
 Alpha virt. eigenvalues --    2.08012   2.08257   2.08496   2.08743   2.09158
 Alpha virt. eigenvalues --    2.09938   2.10313   2.10567   2.11206   2.11662
 Alpha virt. eigenvalues --    2.12348   2.12545   2.13213   2.13474   2.13880
 Alpha virt. eigenvalues --    2.14796   2.15007   2.15243   2.15817   2.15954
 Alpha virt. eigenvalues --    2.16546   2.17025   2.17392   2.17662   2.18000
 Alpha virt. eigenvalues --    2.18352   2.18976   2.19703   2.20141   2.20605
 Alpha virt. eigenvalues --    2.21036   2.21101   2.21665   2.22086   2.22644
 Alpha virt. eigenvalues --    2.22820   2.23459   2.23809   2.24009   2.24145
 Alpha virt. eigenvalues --    2.24431   2.25296   2.25492   2.25591   2.25723
 Alpha virt. eigenvalues --    2.26445   2.26852   2.27668   2.27923   2.28035
 Alpha virt. eigenvalues --    2.28471   2.28889   2.29287   2.29590   2.30532
 Alpha virt. eigenvalues --    2.31037   2.31300   2.32338   2.33001   2.33135
 Alpha virt. eigenvalues --    2.33320   2.33665   2.34347   2.34888   2.35245
 Alpha virt. eigenvalues --    2.35732   2.35939   2.36812   2.37317   2.37490
 Alpha virt. eigenvalues --    2.37609   2.38334   2.38704   2.38988   2.39155
 Alpha virt. eigenvalues --    2.39532   2.39899   2.40416   2.40742   2.40942
 Alpha virt. eigenvalues --    2.41401   2.41686   2.42032   2.42439   2.42920
 Alpha virt. eigenvalues --    2.43187   2.43697   2.44002   2.44614   2.44786
 Alpha virt. eigenvalues --    2.45226   2.45724   2.46465   2.46923   2.47048
 Alpha virt. eigenvalues --    2.48137   2.48412   2.48517   2.49135   2.49797
 Alpha virt. eigenvalues --    2.50308   2.51216   2.51554   2.51615   2.52194
 Alpha virt. eigenvalues --    2.52714   2.53013   2.53057   2.53683   2.54095
 Alpha virt. eigenvalues --    2.54529   2.54804   2.55117   2.55328   2.55573
 Alpha virt. eigenvalues --    2.56192   2.56551   2.56953   2.57504   2.57889
 Alpha virt. eigenvalues --    2.57989   2.58507   2.58543   2.59435   2.59663
 Alpha virt. eigenvalues --    2.59952   2.60243   2.60588   2.61222   2.61446
 Alpha virt. eigenvalues --    2.61699   2.62103   2.62758   2.63498   2.63679
 Alpha virt. eigenvalues --    2.63869   2.64579   2.64868   2.65784   2.66153
 Alpha virt. eigenvalues --    2.66633   2.66833   2.67125   2.67996   2.68202
 Alpha virt. eigenvalues --    2.68402   2.68922   2.69038   2.69468   2.69972
 Alpha virt. eigenvalues --    2.70466   2.70639   2.71162   2.71326   2.71910
 Alpha virt. eigenvalues --    2.72284   2.72578   2.72635   2.72901   2.73208
 Alpha virt. eigenvalues --    2.73705   2.73939   2.74423   2.74801   2.75297
 Alpha virt. eigenvalues --    2.75618   2.76526   2.76642   2.76980   2.77547
 Alpha virt. eigenvalues --    2.77696   2.78069   2.78189   2.78792   2.79121
 Alpha virt. eigenvalues --    2.79672   2.79802   2.80619   2.81006   2.81700
 Alpha virt. eigenvalues --    2.82078   2.82442   2.82845   2.82903   2.83739
 Alpha virt. eigenvalues --    2.84271   2.84424   2.84749   2.85134   2.85591
 Alpha virt. eigenvalues --    2.86161   2.86336   2.87180   2.87899   2.88060
 Alpha virt. eigenvalues --    2.88404   2.88880   2.89070   2.89347   2.89800
 Alpha virt. eigenvalues --    2.90405   2.90508   2.90794   2.91132   2.91491
 Alpha virt. eigenvalues --    2.92291   2.92533   2.92999   2.93051   2.93349
 Alpha virt. eigenvalues --    2.93879   2.94470   2.94585   2.94692   2.95273
 Alpha virt. eigenvalues --    2.95854   2.96283   2.96451   2.96870   2.97209
 Alpha virt. eigenvalues --    2.97844   2.97925   2.98304   2.99066   2.99351
 Alpha virt. eigenvalues --    2.99604   3.00047   3.00137   3.01036   3.01538
 Alpha virt. eigenvalues --    3.01884   3.02386   3.02571   3.02851   3.03257
 Alpha virt. eigenvalues --    3.03593   3.03968   3.04106   3.04521   3.04965
 Alpha virt. eigenvalues --    3.05035   3.05612   3.05932   3.06226   3.06571
 Alpha virt. eigenvalues --    3.06776   3.07322   3.07553   3.07801   3.08293
 Alpha virt. eigenvalues --    3.08415   3.08624   3.09303   3.09408   3.10060
 Alpha virt. eigenvalues --    3.10243   3.10641   3.10995   3.11269   3.11555
 Alpha virt. eigenvalues --    3.11763   3.12084   3.12304   3.12686   3.12774
 Alpha virt. eigenvalues --    3.13163   3.13428   3.13698   3.13855   3.14091
 Alpha virt. eigenvalues --    3.14538   3.15149   3.15241   3.15526   3.15789
 Alpha virt. eigenvalues --    3.16379   3.16858   3.16979   3.17378   3.17695
 Alpha virt. eigenvalues --    3.18276   3.18369   3.18641   3.18882   3.19122
 Alpha virt. eigenvalues --    3.19578   3.20265   3.20350   3.20921   3.21039
 Alpha virt. eigenvalues --    3.21430   3.21787   3.22073   3.22155   3.22440
 Alpha virt. eigenvalues --    3.22658   3.23289   3.23431   3.23547   3.24001
 Alpha virt. eigenvalues --    3.24036   3.24346   3.24573   3.24801   3.25405
 Alpha virt. eigenvalues --    3.25838   3.26199   3.26422   3.26644   3.26842
 Alpha virt. eigenvalues --    3.26978   3.27482   3.28116   3.28232   3.28499
 Alpha virt. eigenvalues --    3.28946   3.29494   3.29814   3.30004   3.30269
 Alpha virt. eigenvalues --    3.30532   3.30849   3.31028   3.31432   3.31593
 Alpha virt. eigenvalues --    3.31762   3.32276   3.32327   3.32899   3.33185
 Alpha virt. eigenvalues --    3.33818   3.34102   3.34349   3.34457   3.34760
 Alpha virt. eigenvalues --    3.35266   3.35648   3.35850   3.36113   3.36452
 Alpha virt. eigenvalues --    3.36858   3.36963   3.37597   3.37757   3.37978
 Alpha virt. eigenvalues --    3.38460   3.38618   3.38733   3.39030   3.39296
 Alpha virt. eigenvalues --    3.39960   3.40038   3.40417   3.40458   3.40723
 Alpha virt. eigenvalues --    3.40918   3.41343   3.41513   3.41938   3.42461
 Alpha virt. eigenvalues --    3.42697   3.42844   3.43269   3.43494   3.43931
 Alpha virt. eigenvalues --    3.44317   3.44593   3.45198   3.45473   3.45804
 Alpha virt. eigenvalues --    3.46199   3.47037   3.47066   3.47096   3.47598
 Alpha virt. eigenvalues --    3.47931   3.48328   3.48538   3.48913   3.49427
 Alpha virt. eigenvalues --    3.50329   3.50668   3.51046   3.51254   3.51709
 Alpha virt. eigenvalues --    3.51915   3.52250   3.52678   3.53190   3.53508
 Alpha virt. eigenvalues --    3.53856   3.54231   3.54783   3.55154   3.55536
 Alpha virt. eigenvalues --    3.55595   3.56263   3.56626   3.56733   3.57500
 Alpha virt. eigenvalues --    3.58010   3.58383   3.58766   3.58918   3.59101
 Alpha virt. eigenvalues --    3.59426   3.59895   3.60540   3.61433   3.61950
 Alpha virt. eigenvalues --    3.62259   3.62506   3.62957   3.63186   3.63526
 Alpha virt. eigenvalues --    3.63905   3.64791   3.65006   3.65098   3.65474
 Alpha virt. eigenvalues --    3.66155   3.67010   3.67274   3.67441   3.67771
 Alpha virt. eigenvalues --    3.68336   3.68743   3.69083   3.69778   3.69896
 Alpha virt. eigenvalues --    3.70303   3.71041   3.71368   3.72087   3.72496
 Alpha virt. eigenvalues --    3.72766   3.73188   3.73891   3.74422   3.74945
 Alpha virt. eigenvalues --    3.75297   3.76362   3.76580   3.76903   3.77238
 Alpha virt. eigenvalues --    3.77417   3.78333   3.78604   3.78954   3.79287
 Alpha virt. eigenvalues --    3.79360   3.80543   3.80965   3.81159   3.81930
 Alpha virt. eigenvalues --    3.82522   3.82980   3.83357   3.83487   3.83872
 Alpha virt. eigenvalues --    3.84843   3.85227   3.85598   3.86492   3.86693
 Alpha virt. eigenvalues --    3.87023   3.88076   3.88491   3.88604   3.89278
 Alpha virt. eigenvalues --    3.90025   3.91007   3.91263   3.92362   3.92797
 Alpha virt. eigenvalues --    3.93271   3.93920   3.95128   3.95669   3.96063
 Alpha virt. eigenvalues --    3.97562   3.98135   3.98248   3.99023   3.99428
 Alpha virt. eigenvalues --    4.00180   4.00338   4.01199   4.02036   4.02772
 Alpha virt. eigenvalues --    4.02877   4.03182   4.03641   4.04294   4.04482
 Alpha virt. eigenvalues --    4.04914   4.05410   4.05809   4.06399   4.07256
 Alpha virt. eigenvalues --    4.08141   4.08785   4.09286   4.09660   4.09930
 Alpha virt. eigenvalues --    4.10589   4.10820   4.11613   4.11867   4.13265
 Alpha virt. eigenvalues --    4.14069   4.14363   4.14727   4.15295   4.16216
 Alpha virt. eigenvalues --    4.16712   4.17290   4.17412   4.17880   4.18371
 Alpha virt. eigenvalues --    4.18615   4.19208   4.19451   4.20319   4.21300
 Alpha virt. eigenvalues --    4.21673   4.22117   4.23146   4.23821   4.24390
 Alpha virt. eigenvalues --    4.25186   4.25492   4.25670   4.26816   4.27080
 Alpha virt. eigenvalues --    4.27345   4.27894   4.28074   4.28931   4.29007
 Alpha virt. eigenvalues --    4.29363   4.30177   4.30468   4.31092   4.31813
 Alpha virt. eigenvalues --    4.32269   4.32957   4.33581   4.34180   4.34416
 Alpha virt. eigenvalues --    4.34874   4.35743   4.36293   4.36482   4.37493
 Alpha virt. eigenvalues --    4.38752   4.38754   4.39206   4.40177   4.40619
 Alpha virt. eigenvalues --    4.41176   4.41771   4.42955   4.43206   4.43807
 Alpha virt. eigenvalues --    4.43952   4.44725   4.46187   4.46890   4.47199
 Alpha virt. eigenvalues --    4.47639   4.48772   4.49503   4.50057   4.50549
 Alpha virt. eigenvalues --    4.51111   4.51629   4.52276   4.53285   4.53771
 Alpha virt. eigenvalues --    4.55248   4.55383   4.55855   4.57130   4.57936
 Alpha virt. eigenvalues --    4.58452   4.59266   4.59965   4.60323   4.61377
 Alpha virt. eigenvalues --    4.62658   4.63304   4.63825   4.64904   4.65352
 Alpha virt. eigenvalues --    4.65927   4.66824   4.67545   4.68055   4.68656
 Alpha virt. eigenvalues --    4.69007   4.69786   4.70059   4.70831   4.72301
 Alpha virt. eigenvalues --    4.73461   4.74439   4.74720   4.75520   4.77493
 Alpha virt. eigenvalues --    4.78447   4.79332   4.80574   4.80839   4.81631
 Alpha virt. eigenvalues --    4.82756   4.84001   4.84406   4.84901   4.85509
 Alpha virt. eigenvalues --    4.85889   4.87346   4.88054   4.88271   4.89466
 Alpha virt. eigenvalues --    4.91413   4.91570   4.92519   4.93384   4.93877
 Alpha virt. eigenvalues --    4.94132   4.95260   4.96242   4.96651   4.97273
 Alpha virt. eigenvalues --    4.98467   4.99271   5.00623   5.00932   5.01968
 Alpha virt. eigenvalues --    5.02646   5.02885   5.03715   5.04184   5.05227
 Alpha virt. eigenvalues --    5.05800   5.08663   5.09283   5.10074   5.10132
 Alpha virt. eigenvalues --    5.11877   5.12919   5.13562   5.14445   5.15226
 Alpha virt. eigenvalues --    5.16313   5.17281   5.18038   5.18614   5.19588
 Alpha virt. eigenvalues --    5.20931   5.22153   5.22761   5.23115   5.24417
 Alpha virt. eigenvalues --    5.24934   5.25709   5.26276   5.27409   5.31912
 Alpha virt. eigenvalues --    5.34275   5.34349   5.36087   5.37470   5.37587
 Alpha virt. eigenvalues --    5.38350   5.38590   5.39359   5.39910   5.43746
 Alpha virt. eigenvalues --    5.45281   5.45492   5.46693   5.46916   5.47943
 Alpha virt. eigenvalues --    5.48602   5.51298   5.53334   5.54400   5.56376
 Alpha virt. eigenvalues --    5.56694   5.58201   5.59058   5.59745   5.61266
 Alpha virt. eigenvalues --    5.61961   5.64124   5.66564   5.67009   5.68166
 Alpha virt. eigenvalues --    5.68376   5.69444   5.70848   5.72421   5.74060
 Alpha virt. eigenvalues --    5.75458   5.78980   5.83450   5.84989   5.86044
 Alpha virt. eigenvalues --    5.93966   5.97029   5.98694   5.99102   5.99833
 Alpha virt. eigenvalues --    6.01178   6.01981   6.03654   6.05556   6.07283
 Alpha virt. eigenvalues --    6.08027   6.10382   6.15025   6.17964   6.22670
 Alpha virt. eigenvalues --    6.24326   6.26245   6.27498   6.29684   6.30883
 Alpha virt. eigenvalues --    6.34829   6.36277   6.39567   6.39901   6.40671
 Alpha virt. eigenvalues --    6.41904   6.47730   6.51291   6.53571   6.67840
 Alpha virt. eigenvalues --    6.72527   6.74736   6.80075   6.84670   6.84807
 Alpha virt. eigenvalues --    6.85216   6.89486   6.95302   7.01243   7.07393
 Alpha virt. eigenvalues --    7.11473   7.18129   7.20861   7.36058   8.54585
 Alpha virt. eigenvalues --    8.97967   9.10902   9.44346  19.35862  22.32625
 Alpha virt. eigenvalues --   22.33125  22.33534  22.56736  22.57961  22.59235
 Alpha virt. eigenvalues --   22.59566  22.61310  22.66983  22.72588  22.74772
 Alpha virt. eigenvalues --   22.76897  22.82027  22.86641  22.89539  22.90407
 Alpha virt. eigenvalues --   22.93268  22.95999  23.01641  23.04459  23.13056
 Alpha virt. eigenvalues --   23.23670  23.25113  23.36805  23.40104  23.40533
 Alpha virt. eigenvalues --   23.49886  23.53531  23.54316  23.56671  23.60051
 Alpha virt. eigenvalues --   23.72760  23.74821  23.79512  23.83127  32.86336
 Alpha virt. eigenvalues --   32.89832  32.92507  33.00030  43.91191  43.92614
 Alpha virt. eigenvalues --   43.95977  44.12704
          Condensed to atoms (all electrons):
 Mulliken charges:
               1
     1  Fe  -0.010168
     2  C   -0.512911
     3  C   -0.465162
     4  C   -0.440152
     5  C   -0.464434
     6  N   -0.102775
     7  C    0.337933
     8  C   -0.069582
     9  C    0.003507
    10  C    0.219429
    11  C   -0.413314
    12  C   -0.350724
    13  C   -0.222234
    14  C    0.318093
    15  O   -0.396357
    16  O   -0.330037
    17  N   -0.145532
    18  C    0.280219
    19  C   -0.061983
    20  C    0.086453
    21  C    0.204761
    22  C   -0.393004
    23  C   -0.216916
    24  C   -0.269092
    25  N   -0.107786
    26  C    0.285405
    27  C   -0.097382
    28  C    0.057473
    29  C    0.258847
    30  C   -0.343930
    31  C   -0.270134
    32  C   -0.315631
    33  N   -0.093412
    34  C    0.192329
    35  C    0.054333
    36  C   -0.049595
    37  C    0.346961
    38  C   -0.413291
    39  C   -0.373517
    40  C   -0.205960
    41  C    0.376649
    42  O   -0.357463
    43  O   -0.189905
    44  C   -0.233137
    45  S   -0.372772
    46  H    0.128842
    47  H    0.341623
    48  H    0.144701
    49  H    0.143312
    50  H    0.124788
    51  H    0.107328
    52  H    0.141571
    53  H    0.129361
    54  H    0.113702
    55  H    0.096886
    56  H    0.128997
    57  H    0.133409
    58  H    0.134250
    59  H    0.146835
    60  H    0.141410
    61  H    0.146254
    62  H    0.137655
    63  H    0.147000
    64  H    0.150128
    65  H    0.102172
    66  H    0.144674
    67  H    0.146833
    68  H    0.124027
    69  H    0.108682
    70  H    0.113358
    71  H    0.140272
    72  H    0.150689
    73  H    0.138728
    74  H    0.163521
    75  H    0.170748
    76  H    0.323066
    77  H    0.145847
    78  H    0.127723
    79  H    0.153490
    80  H    0.102317
    81  H    0.171697
 Sum of Mulliken charges =  -0.00000
 Mulliken charges with hydrogens summed into heavy atoms:
               1
     1  Fe  -0.010168
     2  C   -0.385189
     3  C   -0.319314
     4  C   -0.337835
     5  C   -0.310943
     6  N   -0.102775
     7  C    0.337933
     8  C   -0.069582
     9  C    0.003507
    10  C    0.219429
    11  C    0.012006
    12  C   -0.103878
    13  C    0.074894
    14  C    0.318093
    15  O   -0.396357
    16  O    0.011586
    17  N   -0.145532
    18  C    0.280219
    19  C   -0.061983
    20  C    0.086453
    21  C    0.204761
    22  C    0.021490
    23  C   -0.087919
    24  C   -0.058503
    25  N   -0.107786
    26  C    0.285405
    27  C   -0.097382
    28  C    0.057473
    29  C    0.258847
    30  C    0.068872
    31  C   -0.140774
    32  C   -0.066731
    33  N   -0.093412
    34  C    0.192329
    35  C    0.054333
    36  C   -0.049595
    37  C    0.346961
    38  C    0.016397
    39  C   -0.151477
    40  C    0.064900
    41  C    0.376649
    42  O   -0.357463
    43  O   -0.061063
    44  C    0.272829
    45  S   -0.049706
 Electronic spatial extent (au):  <R**2>=          30190.9100
 Charge=             -0.0000 electrons
 Dipole moment (field-independent basis, Debye):
    X=             -1.2927    Y=              1.2725    Z=              6.9644  Tot=              7.1967
 Quadrupole moment (field-independent basis, Debye-Ang):
   XX=           -305.2345   YY=           -249.4267   ZZ=           -278.9122
   XY=            -10.2043   XZ=            -46.2152   YZ=              7.6450
 Traceless Quadrupole moment (field-independent basis, Debye-Ang):
   XX=            -27.3767   YY=             28.4311   ZZ=             -1.0544
   XY=            -10.2043   XZ=            -46.2152   YZ=              7.6450
 Octapole moment (field-independent basis, Debye-Ang**2):
  XXX=           -126.1243  YYY=             20.4641  ZZZ=             80.6327  XYY=           -106.3198
  XXY=            -12.8188  XXZ=            273.5139  XZZ=             40.3074  YZZ=             31.4986
  YYZ=             57.7972  XYZ=             10.5021
 Hexadecapole moment (field-independent basis, Debye-Ang**3):
 XXXX=         -24344.8615 YYYY=         -14030.8762 ZZZZ=          -2339.8763 XXXY=            179.2270
 XXXZ=          -2190.6855 YYYX=           -471.1113 YYYZ=             63.0023 ZZZX=           -143.5153
 ZZZY=             62.0336 XXYY=          -6203.0552 XXZZ=          -4793.7363 YYZZ=          -2971.3671
 XXYZ=            260.2289 YYXZ=           -441.1141 ZZXY=           -167.6840
 N-N= 6.510074220263D+03 E-N=-2.134188551473D+04  KE= 3.525919376114D+03
  Exact polarizability: 791.441  27.380 724.597 -53.767  -5.515 328.047
 Approx polarizability:1342.321  50.2681331.293-129.987 -12.953 561.019

 ----------------------------------------------------------------------

 Electric dipole moment (input orientation):
 (Debye = 10**-18 statcoulomb cm , SI units = C m)
                  (au)            (Debye)         (10**-30 SI)
   Tot        0.283141D+01      0.719673D+01      0.240057D+02
   x         -0.167723D+01     -0.426309D+01     -0.142201D+02
   y         -0.147671D+01     -0.375342D+01     -0.125201D+02
   z         -0.173872D+01     -0.441938D+01     -0.147415D+02

 Dipole polarizability, Alpha (input orientation).
 (esu units = cm**3 , SI units = C**2 m**2 J**-1)
 Alpha(0;0):
               (au)            (10**-24 esu)      (10**-40 SI)
   iso        0.614695D+03      0.910884D+02      0.101350D+03
   aniso      0.446363D+03      0.661442D+02      0.735953D+02
   xx         0.459980D+03      0.681620D+02      0.758405D+02
   yx        -0.155680D+03     -0.230695D+02     -0.256682D+02
   yy         0.736922D+03      0.109201D+03      0.121502D+03
   zx        -0.134033D+03     -0.198616D+02     -0.220991D+02
   zy        -0.651632D+02     -0.965620D+01     -0.107440D+02
   zz         0.647183D+03      0.959026D+02      0.106706D+03

 First dipole hyperpolarizability, Beta (input orientation).
 ||, _|_  parallel and perpendicular components, (z) with respect to z axis,
 vector components x,y,z.  Values do not include the 1/n! factor of 1/2.
 (esu units = statvolt**-1 cm**4 , SI units = C**3 m**3 J**-2)
 Beta(0;0,0):
               (au)            (10**-30 esu)      (10**-50 SI)
   || (z)     0.456199D+02      0.394121D+00      0.146274D+00
   _|_(z)     0.152066D+02      0.131374D+00      0.487580D-01
   x         -0.291133D+04     -0.251516D+02     -0.933476D+01
   y          0.701764D+04      0.606270D+02      0.225011D+02
   z          0.228100D+03      0.197060D+01      0.731370D+00
   ||         0.152020D+04      0.131333D+02      0.487431D+01
   xxx       -0.361958D+03     -0.312703D+01     -0.116057D+01
   xxy        0.289880D+03      0.250433D+01      0.929459D+00
   yxy       -0.141979D+03     -0.122659D+01     -0.455236D+00
   yyy        0.144582D+04      0.124907D+02      0.463582D+01
   xxz        0.297582D+03      0.257088D+01      0.954157D+00
   yxz       -0.179340D+03     -0.154936D+01     -0.575030D+00
   yyz       -0.599115D+03     -0.517589D+01     -0.192098D+01
   zxz       -0.466505D+03     -0.403024D+01     -0.149578D+01
   zyz        0.603516D+03      0.521391D+01      0.193509D+01
   zzz        0.377566D+03      0.326187D+01      0.121061D+01

 ----------------------------------------------------------------------

 Dipole orientation:
    26        -30.87072864         -5.71291953        -42.15559691
     6        -26.09197054         -1.72196699        -40.57236197
     6        -34.80475608         -0.41511490        -43.11781173
     6        -35.34501419         -9.35996717        -45.25757480
     6        -27.16065979        -10.80310609        -41.43494037
     7        -30.60558208         -1.95320306        -41.81546694
     6        -28.36262171         -0.70013189        -41.29926603
     6        -28.70361849          1.92955911        -41.60189647
     6        -31.13358003          2.30647426        -42.30742178
     6        -32.31003881         -0.08399015        -42.44886690
     6        -32.36876201          4.81959681        -42.84969978
     6        -26.75339202          3.97152325        -41.18882222
     6        -25.65927387          4.85922615        -43.71213900
     6        -24.42519013          7.41771127        -43.44665164
     8        -23.16773197          8.27144937        -45.25472317
     8        -24.66202100          8.69705361        -41.46078403
     7        -34.38008447         -4.96481795        -43.88649648
     6        -35.62208482         -2.76088972        -43.99855585
     6        -37.99119660         -3.07005057        -45.23776284
     6        -38.21326687         -5.55217209        -45.85146717
     6        -35.84622761         -6.77833609        -44.93563704
     6        -39.93625796         -1.05863292        -45.79217323
     6        -40.39822915         -6.68651348        -47.19058154
     6        -41.26126728         -8.99749657        -46.64981700
     7        -31.26203160         -9.50158373        -43.12794284
     6        -33.12836576        -10.57186922        -44.52306508
     6        -32.45211240        -13.09070278        -45.05283759
     6        -30.09576310        -13.53605599        -43.94668586
     6        -29.36090979        -11.22156267        -42.75753303
     6        -34.05251598        -14.90915039        -46.55211170
     6        -28.60051256        -15.90365396        -43.99635928
     6        -29.61295805        -18.18762233        -43.67934728
     7        -27.43390412         -6.10402197        -41.28245741
     6        -26.25447724         -8.34537382        -40.99718758
     6        -23.61878438         -7.95716160        -40.20648992
     6        -23.30576219         -5.44674336        -39.96114315
     6        -25.75128139         -4.30790045        -40.62924563
     6        -21.69432897        -10.00953145        -39.75314839
     6        -20.92887046         -4.05376739        -39.18451042
     6        -18.93998498         -4.10045318        -41.29657466
     6        -16.72382315         -2.40192658        -40.66546215
     8        -15.78768218         -0.99916595        -42.32506418
     8        -15.79378563         -2.39801016        -38.49119243
     6        -30.35461545         -5.90498309        -35.72335218
    16        -33.05373426         -6.43564319        -37.70938089
     1        -15.17018279         -2.24498081        -37.34815760
     1        -23.55896919         10.13551018        -41.53298327
     1        -32.85574500        -16.10832811        -47.65584363
     1        -35.15526752        -16.03732588        -45.28733061
     1        -35.28244749        -13.87246950        -47.77729468
     1        -28.23246450        -19.60199938        -44.10629834
     1        -30.22012793        -18.39549994        -41.76188966
     1        -26.60611072        -15.77246179        -44.30240184
     1        -41.63739021         -9.99555283        -48.36764334
     1        -39.87228092        -10.00175698        -45.57711477
     1        -41.31591878         -5.61708860        -48.64064648
     1        -40.28894004          0.01780536        -44.11723798
     1        -41.65335741         -1.93241228        -46.40584354
     1        -39.24526874          0.16453838        -47.24644213
     1        -33.53886574          4.65540064        -44.49055596
     1        -30.94243952          6.21519870        -43.17590775
     1        -33.50061112          5.36976369        -41.26706082
     1        -24.62515272          3.47879576        -44.76737240
     1        -26.84285626          4.60709770        -45.33203903
     1        -25.42225858          3.64856262        -39.70144455
     1        -27.24337764          5.42143544        -39.86739084
     1        -19.64935741         -3.96715718        -43.18536663
     1        -18.47658260         -5.92375887        -42.03774042
     1        -21.20762493         -2.27080099        -38.27245840
     1        -20.24747616         -4.43997071        -37.32035890
     1        -19.88415482         -9.17372867        -39.41667340
     1        -21.59168220        -11.20814414        -41.37835712
     1        -22.24169126        -11.10293929        -38.14275529
     1        -30.33194370         -3.97578432        -35.11821566
     1        -30.45767763         -7.11687503        -34.10804780
     1        -35.02312894         -6.82283594        -39.15847397
     1        -36.10981693          1.12147199        -42.96215490
     1        -24.58800027         -0.51590235        -39.96244916
     1        -26.11766842        -12.38308072        -40.72475639
     1        -36.77678524        -10.48581145        -46.13565136
     1        -28.66563548         -6.30603325        -36.76018271

 Electric dipole moment (dipole orientation):
 (Debye = 10**-18 statcoulomb cm , SI units = C m)
                  (au)            (Debye)         (10**-30 SI)
   Tot        0.283141D+01      0.719673D+01      0.240057D+02
   x          0.000000D+00      0.000000D+00      0.000000D+00
   y          0.000000D+00      0.000000D+00      0.000000D+00
   z          0.283141D+01      0.719673D+01      0.240057D+02

 Dipole polarizability, Alpha (dipole orientation).
 (esu units = cm**3 , SI units = C**2 m**2 J**-1)
 Alpha(0;0):
               (au)            (10**-24 esu)      (10**-40 SI)
   iso        0.614695D+03      0.910884D+02      0.101350D+03
   aniso      0.446363D+03      0.661442D+02      0.735953D+02
   xx         0.691950D+03      0.102536D+03      0.114087D+03
   yx         0.281468D+02      0.417093D+01      0.464079D+01
   yy         0.781676D+03      0.115832D+03      0.128881D+03
   zx         0.131226D+03      0.194457D+02      0.216362D+02
   zy         0.406195D+02      0.601919D+01      0.669726D+01
   zz         0.370460D+03      0.548965D+02      0.610806D+02

 First dipole hyperpolarizability, Beta (dipole orientation).
 ||, _|_  parallel and perpendicular components, (z) with respect to z axis,
 vector components x,y,z.  Values do not include the 1/n! factor of 1/2.
 (esu units = statvolt**-1 cm**4 , SI units = C**3 m**3 J**-2)
 Beta(0;0,0):
               (au)            (10**-30 esu)      (10**-50 SI)
   || (z)    -0.415104D+03     -0.358617D+01     -0.133097D+01
   _|_(z)    -0.138368D+03     -0.119539D+01     -0.443658D+00
   x         -0.375675D+04     -0.324554D+02     -0.120455D+02
   y         -0.627329D+04     -0.541964D+02     -0.201144D+02
   z         -0.207552D+04     -0.179309D+02     -0.665487D+01
   ||         0.152020D+04      0.131333D+02      0.487431D+01
   xxx       -0.126257D+04     -0.109076D+02     -0.404824D+01
   xxy       -0.102699D+03     -0.887240D+00     -0.329290D+00
   yxy        0.929637D+02      0.803134D+00      0.298075D+00
   yyy       -0.188701D+04     -0.163023D+02     -0.605043D+01
   xxz       -0.360824D+03     -0.311723D+01     -0.115693D+01
   yxz        0.879011D+02      0.759397D+00      0.281843D+00
   yyz       -0.291722D+03     -0.252025D+01     -0.935366D+00
   zxz       -0.826477D+02     -0.714012D+00     -0.264998D+00
   zyz       -0.101391D+03     -0.875937D+00     -0.325095D+00
   zzz       -0.392942D+02     -0.339471D+00     -0.125991D+00

 ----------------------------------------------------------------------
 1\1\GINC-NODE468\SP\RPBE1PBE\def2TZVP\C35H36Fe1N4O4S1\ZHARTOVSKA\28-Ja
 n-2023\0\\# PBE1PBE/def2TZVP empiricaldispersion=GD3BJ int=(grid=ultra
 fine) polar\\6xcx_II_S\\0,1\Fe,0,-0.149,17.275,21.799\C,0,1.738,14.598
 ,20.888\C,0,-0.94,15.608,24.807\C,0,-1.399,20.189,23.203\C,0,0.646,18.
 94,18.997\N,0,0.235,15.5,22.643\C,0,1.129,14.579,22.118\C,0,1.349,13.5
 4,23.049\C,0,0.602,13.815,24.144\C,0,-0.083,15.025,23.899\C,0,0.515,12
 .984,25.401\C,0,2.234,12.33,22.867\C,0,3.568,12.525,23.589\C,0,4.255,1
 1.201,23.822\O,0,5.429,11.197,24.251\O,0,3.664,10.114,23.604\N,0,-0.98
 4,17.779,23.668\C,0,-1.24,16.966,24.702\C,0,-1.864,17.684,25.762\C,0,-
 2.015,18.968,25.346\C,0,-1.446,19.015,23.968\C,0,-2.292,17.149,27.107\
 C,0,-2.615,20.058,26.153\C,0,-3.376,21.013,25.61\N,0,-0.39,19.25,21.19
 2\C,0,-0.834,20.295,21.935\C,0,-0.643,21.481,21.2\C,0,-0.059,21.133,19
 .979\C,0,0.107,19.712,20.001\C,0,-1.02,22.857,21.687\C,0,0.336,22.037,
 18.873\C,0,-0.414,23.057,18.457\N,0,0.961,16.858,20.33\C,0,1.133,17.64
 6,19.249\C,0,2.016,16.99,18.273\C,0,2.323,15.786,18.788\C,0,1.635,15.7
 17,20.086\C,0,2.463,17.573,16.956\C,0,3.205,14.718,18.175\C,0,4.686,15
 .12,18.225\C,0,5.578,13.974,17.794\O,0,6.628,13.72,18.427\O,0,5.282,13
 .278,16.797\C,0,-1.971,15.532,19.494\S,0,-2.52,16.587,20.839\H,0,5.197
 45429,12.83203845,16.27231825\H,0,4.28914319,9.38928135,23.67869182\H,
 0,-0.2998537,23.56803753,21.33955943\H,0,-1.98742462,23.1160248,21.310
 30948\H,0,-1.04030346,22.86357572,22.75678714\H,0,0.14828792,23.657331
 82,17.77265068\H,0,-1.28756335,22.68076651,17.96686183\H,0,1.27117567,
 21.86173212,18.38348224\H,0,-3.09437723,21.96434238,26.0106698\H,0,-3.
 23874493,21.01813212,24.54885217\H,0,-2.43218352,20.08060725,27.207024
 22\H,0,-2.85406321,16.24882594,26.97035591\H,0,-2.89925121,17.87674936
 ,27.6035147\H,0,-1.42608121,16.94218016,27.70055725\H,0,0.52813879,13.
 62762211,26.25568003\H,0,1.34930359,12.31549783,25.44507228\H,0,-0.394
 11738,12.41977754,25.393345\H,0,4.18722589,13.31887784,23.22676074\H,0
 ,3.56008132,13.20289377,24.41682687\H,0,2.28631676,11.92677458,21.8772
 6659\H,0,1.76371399,11.37696826,22.9913446\H,0,4.99779582,15.65448719,
 19.09793002\H,0,4.92556353,16.07986986,17.81737375\H,0,2.984253,13.710
 01405,18.45808142\H,0,2.86372501,14.30442613,17.2490475\H,0,3.19184144
 ,16.92903599,16.50990526\H,0,2.89355227,18.53853214,17.12114368\H,0,1.
 62076615,17.66508779,16.30250021\H,0,-1.95589657,14.51384669,19.822687
 88\H,0,-2.64277363,15.62986317,18.66693108\H,0,-2.92057432,17.35677397
 ,21.8203706\H,0,-1.37362878,15.02112994,25.5895916\H,0,2.29182092,13.7
 4666979,20.55122224\H,0,0.69529041,19.33354202,18.00322179\H,0,-1.8307
 3519,21.07173083,23.62642769\H,0,-0.98714315,15.82354346,19.19080352\\
 Version=ES64L-G16RevA.03\State=1-A\HF=-3535.0680424\RMSD=3.307e-09\Dip
 ole=-1.6772277,-1.4767082,-1.7387183\Polar=459.9802003,-155.6803685,73
 6.9224009,-134.0329905,-65.163248,647.1827558\HyperPolar=-361.9578262,
 289.8796349,-141.9791533,1445.8182243,297.5823911,-179.3403455,-599.11
 50026,-466.5051133,603.5161732,377.5658352\Quadrupole=-37.5019121,9.13
 96438,28.3622683,20.2039315,-7.0660196,9.7987588\PG=C01 [X(C35H36Fe1N4
 O4S1)]\\@


 THE MORE PROGRESS PHYSICAL SCIENCES MAKE, THE MORE THEY TEND TO ENTER
 THE DOMAIN OF MATHEMATICS, WHICH IS A KIND OF CENTRE TO WHICH THEY ALL
 CONVERGE.  WE MAY EVEN JUDGE THE DEGREE OF PERFECTION TO WHICH A 
 SCIENCE HAS ARRIVED BY THE FACILITY WITH WHICH IT MAY BE SUBMITTED
 TO CALCULATION.

                               -- ADOLPHE QUETELET, 1796-1874
 Job cpu time:       3 days  5 hours 24 minutes 47.7 seconds.
 Elapsed time:       0 days 19 hours 36 minutes 55.5 seconds.
 File lengths (MBytes):  RWF=   1369 Int=      0 D2E=      0 Chk=    174 Scr=      1
 Normal termination of Gaussian 16 at Sat Jan 28 18:20:45 2023.
 Initial command:
 /afs/math/software/gaussian/g16.A03/g16/l1.exe "/scratch/zhartovska_gaussian.U2SST2L/Gau-26222.inp" -scrdir="/scratch/zhartovska_gaussian.U2SST2L/"
 Entering Link 1 = /afs/math/software/gaussian/g16.A03/g16/l1.exe PID=     15122.
  
 Copyright (c) 1988,1990,1992,1993,1995,1998,2003,2009,2016,
            Gaussian, Inc.  All Rights Reserved.
  
 This is part of the Gaussian(R) 16 program.  It is based on
 the Gaussian(R) 09 system (copyright 2009, Gaussian, Inc.),
 the Gaussian(R) 03 system (copyright 2003, Gaussian, Inc.),
 the Gaussian(R) 98 system (copyright 1998, Gaussian, Inc.),
 the Gaussian(R) 94 system (copyright 1995, Gaussian, Inc.),
 the Gaussian 92(TM) system (copyright 1992, Gaussian, Inc.),
 the Gaussian 90(TM) system (copyright 1990, Gaussian, Inc.),
 the Gaussian 88(TM) system (copyright 1988, Gaussian, Inc.),
 the Gaussian 86(TM) system (copyright 1986, Carnegie Mellon
 University), and the Gaussian 82(TM) system (copyright 1983,
 Carnegie Mellon University). Gaussian is a federally registered
 trademark of Gaussian, Inc.
  
 This software contains proprietary and confidential information,
 including trade secrets, belonging to Gaussian, Inc.
  
 This software is provided under written license and may be
 used, copied, transmitted, or stored only in accord with that
 written license.
  
 The following legend is applicable only to US Government
 contracts under FAR:
  
                    RESTRICTED RIGHTS LEGEND
  
 Use, reproduction and disclosure by the US Government is
 subject to restrictions as set forth in subparagraphs (a)
 and (c) of the Commercial Computer Software - Restricted
 Rights clause in FAR 52.227-19.
  
 Gaussian, Inc.
 340 Quinnipiac St., Bldg. 40, Wallingford CT 06492
  
  
 ---------------------------------------------------------------
 Warning -- This program may not be used in any manner that
 competes with the business of Gaussian, Inc. or will provide
 assistance to any competitor of Gaussian, Inc.  The licensee
 of this program is prohibited from giving any competitor of
 Gaussian, Inc. access to this program.  By using this program,
 the user acknowledges that Gaussian, Inc. is engaged in the
 business of creating and licensing software in the field of
 computational chemistry and represents and warrants to the
 licensee that it is not a competitor of Gaussian, Inc. and that
 it will not use this program in any manner prohibited above.
 ---------------------------------------------------------------
  

 Cite this work as:
 Gaussian 16, Revision A.03,
 M. J. Frisch, G. W. Trucks, H. B. Schlegel, G. E. Scuseria, 
 M. A. Robb, J. R. Cheeseman, G. Scalmani, V. Barone, 
 G. A. Petersson, H. Nakatsuji, X. Li, M. Caricato, A. V. Marenich, 
 J. Bloino, B. G. Janesko, R. Gomperts, B. Mennucci, H. P. Hratchian, 
 J. V. Ortiz, A. F. Izmaylov, J. L. Sonnenberg, D. Williams-Young, 
 F. Ding, F. Lipparini, F. Egidi, J. Goings, B. Peng, A. Petrone, 
 T. Henderson, D. Ranasinghe, V. G. Zakrzewski, J. Gao, N. Rega, 
 G. Zheng, W. Liang, M. Hada, M. Ehara, K. Toyota, R. Fukuda, 
 J. Hasegawa, M. Ishida, T. Nakajima, Y. Honda, O. Kitao, H. Nakai, 
 T. Vreven, K. Throssell, J. A. Montgomery, Jr., J. E. Peralta, 
 F. Ogliaro, M. J. Bearpark, J. J. Heyd, E. N. Brothers, K. N. Kudin, 
 V. N. Staroverov, T. A. Keith, R. Kobayashi, J. Normand, 
 K. Raghavachari, A. P. Rendell, J. C. Burant, S. S. Iyengar, 
 J. Tomasi, M. Cossi, J. M. Millam, M. Klene, C. Adamo, R. Cammi, 
 J. W. Ochterski, R. L. Martin, K. Morokuma, O. Farkas, 
 J. B. Foresman, and D. J. Fox, Gaussian, Inc., Wallingford CT, 2016.
 
 ******************************************
 Gaussian 16:  ES64L-G16RevA.03 25-Dec-2016
                28-Jan-2023 
 ******************************************
 %nprocs=12
 Will use up to   12 processors via shared memory.
 %mem=16GB
 %chk=6xcx_II_S.chk
 ----------------------------------------------------------------------
 # PBE1PBE/def2TZVP empiricaldispersion=GD3BJ int=(grid=ultrafine) geom
 =check guess=read pop=nbo scf=qc
 ----------------------------------------------------------------------
 1/29=2,38=1,172=1/1;
 2/12=2,40=1/2;
 3/5=44,7=101,11=2,14=-4,25=1,30=1,74=-13,75=-5,116=-2,124=41/1,2,3;
 4/5=1/1;
 5/5=2,8=3,38=6/8;
 6/7=2,8=2,9=2,10=2,28=1,40=1/1,7;
 99/5=1,9=1/99;
 -------------
 6xcx_II_S_nbo
 -------------
 Structure from the checkpoint file:  "6xcx_II_S.chk"
 Charge =  0 Multiplicity = 1
 Z-Matrix found in chk file.
 Fe,0,-0.149,17.275,21.799
 C,0,1.738,14.598,20.888
 C,0,-0.94,15.608,24.807
[...]
  1518. RY*(   5) H  78                  0.00001     3.23357   
  1519. RY*(   1) H  79                  0.00112     0.63410   
  1520. RY*(   2) H  79                  0.00029     2.13184   
  1521. RY*(   3) H  79                  0.00022     2.21932   
  1522. RY*(   4) H  79                  0.00013     2.93880   
  1523. RY*(   5) H  79                  0.00001     3.15433   
  1524. RY*(   1) H  80                  0.00178     0.77579   
  1525. RY*(   2) H  80                  0.00031     2.17255   
  1526. RY*(   3) H  80                  0.00026     2.37656   
  1527. RY*(   4) H  80                  0.00017     2.89115   
  1528. RY*(   5) H  80                  0.00002     3.24330   
  1534. BD*(   1) C   2 - C   7          0.02089     0.58216   
  1535. BD*(   1) C   2 - C  37          0.02081     0.56740   
  1536. BD*(   1) C   2 - H  78          0.01499     0.43906   
  1537. BD*(   1) C   3 - C  10          0.02021     0.57254   
  1538. BD*(   2) C   3 - C  10          0.39853     0.03758  1572(v),1554(v),1550(v)
                                                    234(g),420(g),1540(g),164(r)
                                                    160(r)
  1539. BD*(   1) C   3 - C  18          0.02190     0.54719   
  1540. BD*(   1) C   3 - H  77          0.01123     0.43553   
  1541. BD*(   1) C   4 - C  21          0.01917     0.53707   
  1542. BD*(   2) C   4 - C  21          0.39348     0.03126  1572(v),1576(v),173(v)
                                                    1584(r),704(g),164(r)
  1543. BD*(   1) C   4 - C  26          0.02319     0.55832   
  1544. BD*(   1) C   4 - H  80          0.01521     0.45090   
  1545. BD*(   1) C   5 - C  29          0.02004     0.57588   
  1546. BD*(   1) C   5 - C  34          0.02052     0.52945   
  1547. BD*(   2) C   5 - C  34          0.41055     0.02652  1590(v),1610(v),1607(v)
                                                    286(g),1044(g),164(r),160(r)
                                                    1630(r)
  1548. BD*(   1) C   5 - H  79          0.01121     0.43575   
  1549. BD*(   1) N   6 - C   7          0.02811     0.46750   
  1550. BD*(   2) N   6 - C   7          0.63900    -0.00537  165(v),1554(v),1538(v)
                                                    1607(r),340(g),160(r),164(r)
                                                    312(g),208(v),159(r)
  1551. BD*(   1) N   6 - C  10          0.02791     0.47593   
  1552. BD*(   1) C   7 - C   8          0.03460     0.53135   
  1553. BD*(   1) C   8 - C   9          0.02285     0.61223   
  1554. BD*(   2) C   8 - C   9          0.26302     0.06426  1538(v),1550(v),1561(v)
                                                    1560(v),1563(v),1558(v)
  1555. BD*(   1) C   8 - C  12          0.02401     0.39860   
  1556. BD*(   1) C   9 - C  10          0.03299     0.52849   
  1557. BD*(   1) C   9 - C  11          0.01789     0.39511   
  1558. BD*(   1) C  11 - H  60          0.00715     0.40692   
  1559. BD*(   1) C  11 - H  61          0.00520     0.41353   
  1560. BD*(   1) C  11 - H  62          0.01021     0.40369   
  1561. BD*(   1) C  12 - C  13          0.01606     0.34261   
  1562. BD*(   1) C  12 - H  65          0.01869     0.39041   
  1563. BD*(   1) C  12 - H  66          0.01849     0.40092   
  1564. BD*(   1) C  13 - C  14          0.06011     0.34337   
  1565. BD*(   1) C  13 - H  63          0.01620     0.38178   
  1566. BD*(   1) C  13 - H  64          0.01421     0.37680   
  1567. BD*(   1) C  14 - O  15          0.02695     0.55703   
  1568. BD*(   2) C  14 - O  15          0.25325    -0.00027  1566(v),1565(v),522(g)
                                                    528(g)
  1569. BD*(   1) C  14 - O  16          0.06843     0.47538   
  1570. BD*(   1) O  16 - H  47          0.01396     0.38094   
  1571. BD*(   1) N  17 - C  18          0.02479     0.52611   
  1572. BD*(   2) N  17 - C  18          0.61346     0.00172  1538(v),1542(v),1576(v)
                                                    626(g),164(r),598(g),628(g)
                                                    161(r),159(r),160(r),1631(r)
  1573. BD*(   1) N  17 - C  21          0.02314     0.50585   
  1574. BD*(   1) C  18 - C  19          0.03607     0.51123   
  1575. BD*(   1) C  19 - C  20          0.02048     0.59862   
  1576. BD*(   2) C  19 - C  20          0.25993     0.06072  1584(v),1542(v),1572(v)
                                                    1582(v),1580(v),1585(v)
  1577. BD*(   1) C  19 - C  22          0.01730     0.39140   
  1578. BD*(   1) C  20 - C  21          0.04169     0.43020   
  1579. BD*(   1) C  20 - C  23          0.02841     0.44296   
  1580. BD*(   1) C  22 - H  57          0.00762     0.40190   
  1581. BD*(   1) C  22 - H  58          0.00555     0.41007   
  1582. BD*(   1) C  22 - H  59          0.00944     0.40196   
  1583. BD*(   1) C  23 - C  24          0.00621     0.61544   
  1584. BD*(   2) C  23 - C  24          0.08586     0.03814   
  1585. BD*(   1) C  23 - H  56          0.02322     0.44258   
  1586. BD*(   1) C  24 - H  54          0.01062     0.42278   
  1587. BD*(   1) C  24 - H  55          0.01446     0.44688   
  1588. BD*(   1) N  25 - C  26          0.02610     0.51030   
  1589. BD*(   1) N  25 - C  29          0.02667     0.48950   
  1590. BD*(   2) N  25 - C  29          0.60565     0.00130  1547(v),1593(v),173(v)
                                                    164(r),160(r),912(g),806(g)
                                                    286(v),159(r)
  1591. BD*(   1) C  26 - C  27          0.03173     0.53352   
  1592. BD*(   1) C  27 - C  28          0.02329     0.55090   
  1593. BD*(   2) C  27 - C  28          0.29939     0.05322  1601(v),1590(v),173(v)
                                                    1598(v),1602(v),1597(v)
  1594. BD*(   1) C  27 - C  30          0.01612     0.40232   
  1595. BD*(   1) C  28 - C  29          0.03649     0.50562   
  1596. BD*(   1) C  28 - C  31          0.03097     0.44234   
  1597. BD*(   1) C  30 - H  48          0.00712     0.42105   
  1598. BD*(   1) C  30 - H  49          0.00995     0.41519   
  1599. BD*(   1) C  30 - H  50          0.00842     0.41742   
  1600. BD*(   1) C  31 - C  32          0.00663     0.61074   
  1601. BD*(   2) C  31 - C  32          0.09891     0.04839   
  1602. BD*(   1) C  31 - H  53          0.02595     0.43841   
  1603. BD*(   1) C  32 - H  51          0.00864     0.44595   
  1604. BD*(   1) C  32 - H  52          0.01051     0.41602   
  1605. BD*(   1) N  33 - C  34          0.02758     0.50165   
  1606. BD*(   1) N  33 - C  37          0.02806     0.50559   
  1607. BD*(   2) N  33 - C  37          0.63761    -0.00736  165(v),1547(v),1610(v)
                                                    1550(r),164(r),1120(g)
                                                    1014(g),208(v),159(r),161(r)
                                                    163(r),160(r)
  1608. BD*(   1) C  34 - C  35          0.03772     0.45052   
  1609. BD*(   1) C  35 - C  36          0.02126     0.61200   
  1610. BD*(   2) C  35 - C  36          0.23460     0.05903  1547(v),1607(v),1617(v)
                                                    1619(v),1616(v),1615(v)
  1611. BD*(   1) C  35 - C  38          0.01809     0.38761   
  1612. BD*(   1) C  36 - C  37          0.03902     0.45385   
  1613. BD*(   1) C  36 - C  39          0.02339     0.38325   
  1614. BD*(   1) C  38 - H  71          0.00563     0.40464   
  1615. BD*(   1) C  38 - H  72          0.00827     0.39794   
  1616. BD*(   1) C  38 - H  73          0.00981     0.39590   
  1617. BD*(   1) C  39 - C  40          0.01582     0.32802   
  1618. BD*(   1) C  39 - H  69          0.01670     0.38357   
  1619. BD*(   1) C  39 - H  70          0.02217     0.38277   
  1620. BD*(   1) C  40 - C  41          0.06613     0.33535   
  1621. BD*(   1) C  40 - H  67          0.01427     0.38291   
  1622. BD*(   1) C  40 - H  68          0.01825     0.36734   
  1623. BD*(   1) C  41 - O  42          0.03616     0.55027   
  1624. BD*(   2) C  41 - O  42          0.22161    -0.00360  1622(v),1224(g),1617(v)
  1625. BD*(   1) C  41 - O  43          0.08021     0.50029   
  1626. BD*(   1) O  43 - H  46          0.00660     1.28469   
       -------------------------------
              Total Lewis  289.05799  ( 97.3889%)
        Valence non-Lewis    7.13097  (  2.4026%)
        Rydberg non-Lewis    0.61894  (  0.2085%)
       -------------------------------
            Total unit  2  296.80790  (100.0000%)
           Charge unit  2   -0.80790

 Molecular unit  3  (CH4S)
    94. BD (   1) C  44 - S  45          1.97465    -0.74385  161(r),1631(g),160(r)
                                                    1504(v),1506(v),164(r)
                                                    182(r),184(r),163(r),185(r)
                                                    193(r)
    95. BD (   1) C  44 - H  74          1.99145    -0.57979  1631(v),1326(v),183(r)
                                                    186(r)
    96. BD (   1) C  44 - H  75          1.99208    -0.58181  1631(v),1327(v),161(r)
    97. BD (   1) C  44 - H  81          1.98842    -0.58065  1631(v),1326(v),161(r)
                                                    1021(r),163(r),1121(r)
                                                    1022(r),1017(r),1547(r)
                                                    159(r),1014(r)
    98. BD (   1) S  45 - H  76          1.95423    -0.70492  161(r),1627(g),160(r)
                                                    1300(v),164(r),1302(v)
                                                    182(r),184(r),193(r),190(r)
                                                    806(r)
   150. CR (   1) C  44                  1.99914   -10.16521  1627(g),1631(v),1529(v)
                                                    1495(v),1500(v)
   151. CR (   1) S  45                  2.00000   -87.77388  161(r),160(r)
   152. CR (   2) S  45                  1.99912    -9.11421  161(r),160(r),1504(v)
                                                    1627(g),164(r),163(r)
   153. CR (   3) S  45                  1.99988    -5.92885   
   154. CR (   4) S  45                  1.99995    -5.92713   
   155. CR (   5) S  45                  1.99988    -5.92811  161(r),160(r),164(r)
   179. LP (   1) S  45                  1.96521    -0.27282  1628(v),162(r),1629(v)
                                                    1505(v),1630(v),1301(v)
                                                    163(r),187(r)
   180. LP (   2) S  45                  1.72160    -0.26264  161(r),160(r),164(r),1630(v)
                                                    1629(v),1329(g),193(r)
                                                    1302(v),600(r),808(r),806(r)
                                                    312(r),163(r),601(r),314(r)
                                                    185(r),191(r),1017(r),182(r)
                                                    198(r),807(r),1016(r),186(r)
                                                    184(r),162(r),159(r),809(r)
  1300. RY*(   1) C  44                  0.00219     1.77412   
  1301. RY*(   2) C  44                  0.00199     1.31871   
  1302. RY*(   3) C  44                  0.00132     1.30977   
  1303. RY*(   4) C  44                  0.00043     1.17306   
  1304. RY*(   5) C  44                  0.00036     0.92322   
  1305. RY*(   6) C  44                  0.00013     0.95034   
  1306. RY*(   7) C  44                  0.00007     2.18778   
  1307. RY*(   8) C  44                  0.00004     1.39928   
  1308. RY*(   9) C  44                  0.00002     1.53598   
  1309. RY*(  10) C  44                  0.00001     2.01421   
  1310. RY*(  11) C  44                  0.00000     2.93894   
  1311. RY*(  12) C  44                  0.00000     2.00573   
  1312. RY*(  13) C  44                  0.00000     2.39892   
  1313. RY*(  14) C  44                  0.00001     2.16307   
  1314. RY*(  15) C  44                  0.00000     2.72522   
  1315. RY*(  16) C  44                  0.00001     1.77158   
  1316. RY*(  17) C  44                  0.00001     2.71876   
  1317. RY*(  18) C  44                  0.00000    21.51082   
  1318. RY*(  19) C  44                  0.00000     3.01308   
  1319. RY*(  20) C  44                  0.00000     3.15167   
  1320. RY*(  21) C  44                  0.00000     3.19918   
  1321. RY*(  22) C  44                  0.00000     3.26505   
  1322. RY*(  23) C  44                  0.00000     3.10839   
  1323. RY*(  24) C  44                  0.00000     3.48297   
  1324. RY*(  25) C  44                  0.00000     3.16163   
  1325. RY*(  26) C  44                  0.00000     3.02526   
  1326. RY*(   1) S  45                  0.00405     0.63943   
  1327. RY*(   2) S  45                  0.00364     0.72744   
  1328. RY*(   3) S  45                  0.00120     0.84763   
  1329. RY*(   4) S  45                  0.00105     1.31986   
  1330. RY*(   5) S  45                  0.00032     0.98876   
  1331. RY*(   6) S  45                  0.00014     1.39080   
  1332. RY*(   7) S  45                  0.00015     1.22478   
  1333. RY*(   8) S  45                  0.00011     1.15346   
  1334. RY*(   9) S  45                  0.00005     1.92163   
  1335. RY*(  10) S  45                  0.00001     1.83058   
  1336. RY*(  11) S  45                  0.00000     8.63319   
  1337. RY*(  12) S  45                  0.00001     2.07480   
  1338. RY*(  13) S  45                  0.00001     1.93247   
  1339. RY*(  14) S  45                  0.00000    18.10824   
  1340. RY*(  15) S  45                  0.00001     1.81018   
  1341. RY*(  16) S  45                  0.00000     2.40581   
  1342. RY*(  17) S  45                  0.00001     1.82852   
  1343. RY*(  18) S  45                  0.00000     8.54440   
  1344. RY*(  19) S  45                  0.00001     1.83769   
  1345. RY*(  20) S  45                  0.00001     2.68641   
  1346. RY*(  21) S  45                  0.00000     8.50581   
  1347. RY*(  22) S  45                  0.00000     1.97963   
  1348. RY*(  23) S  45                  0.00000     1.94071   
  1349. RY*(  24) S  45                  0.00001     1.81951   
  1350. RY*(  25) S  45                  0.00001     1.91005   
  1351. RY*(  26) S  45                  0.00001     2.07912   
  1352. RY*(  27) S  45                  0.00000     2.00662   
  1353. RY*(  28) S  45                  0.00000     2.10249   
  1494. RY*(   1) H  74                  0.00108     1.19801   
  1495. RY*(   2) H  74                  0.00015     1.64982   
  1496. RY*(   3) H  74                  0.00006     2.12566   
  1497. RY*(   4) H  74                  0.00004     2.33038   
  1498. RY*(   5) H  74                  0.00002     2.12437   
  1499. RY*(   1) H  75                  0.00094     1.23832   
  1500. RY*(   2) H  75                  0.00015     1.55221   
  1501. RY*(   3) H  75                  0.00005     2.18343   
  1502. RY*(   4) H  75                  0.00003     2.08448   
  1503. RY*(   5) H  75                  0.00001     2.23927   
  1504. RY*(   1) H  76                  0.00218     0.95192   
  1505. RY*(   2) H  76                  0.00098     1.79152   
  1506. RY*(   3) H  76                  0.00059     2.41592   
  1507. RY*(   4) H  76                  0.00047     2.12271   
  1508. RY*(   5) H  76                  0.00003     1.77904   
  1529. RY*(   1) H  81                  0.00123     1.47095   
  1530. RY*(   2) H  81                  0.00019     2.29915   
  1531. RY*(   3) H  81                  0.00005     2.13065   
  1532. RY*(   4) H  81                  0.00004     2.69253   
  1533. RY*(   5) H  81                  0.00002     1.94660   
  1627. BD*(   1) C  44 - S  45          0.02362     0.11880   
  1628. BD*(   1) C  44 - H  74          0.01690     0.37610   
  1629. BD*(   1) C  44 - H  75          0.01504     0.37672   
  1630. BD*(   1) C  44 - H  81          0.01434     0.39165   
  1631. BD*(   1) S  45 - H  76          0.03712     0.21245   
       -------------------------------
              Total Lewis   25.58561  ( 99.4839%)
        Valence non-Lewis    0.10701  (  0.4161%)
        Rydberg non-Lewis    0.02571  (  0.1000%)
       -------------------------------
            Total unit  3   25.71833  (100.0000%)
           Charge unit  3    0.28167
 1\1\GINC-NODE468\SP\RPBE1PBE\def2TZVP\C35H36Fe1N4O4S1\ZHARTOVSKA\28-Ja
 n-2023\0\\# PBE1PBE/def2TZVP empiricaldispersion=GD3BJ int=(grid=ultra
 fine) geom=check guess=read pop=nbo scf=qc\\6xcx_II_S_nbo\\0,1\Fe,0,-0
 .149,17.275,21.799\C,0,1.738,14.598,20.888\C,0,-0.94,15.608,24.807\C,0
 ,-1.399,20.189,23.203\C,0,0.646,18.94,18.997\N,0,0.235,15.5,22.643\C,0
 ,1.129,14.579,22.118\C,0,1.349,13.54,23.049\C,0,0.602,13.815,24.144\C,
 0,-0.083,15.025,23.899\C,0,0.515,12.984,25.401\C,0,2.234,12.33,22.867\
 C,0,3.568,12.525,23.589\C,0,4.255,11.201,23.822\O,0,5.429,11.197,24.25
 1\O,0,3.664,10.114,23.604\N,0,-0.984,17.779,23.668\C,0,-1.24,16.966,24
 .702\C,0,-1.864,17.684,25.762\C,0,-2.015,18.968,25.346\C,0,-1.446,19.0
 15,23.968\C,0,-2.292,17.149,27.107\C,0,-2.615,20.058,26.153\C,0,-3.376
 ,21.013,25.61\N,0,-0.39,19.25,21.192\C,0,-0.834,20.295,21.935\C,0,-0.6
 43,21.481,21.2\C,0,-0.059,21.133,19.979\C,0,0.107,19.712,20.001\C,0,-1
 .02,22.857,21.687\C,0,0.336,22.037,18.873\C,0,-0.414,23.057,18.457\N,0
 ,0.961,16.858,20.33\C,0,1.133,17.646,19.249\C,0,2.016,16.99,18.273\C,0
 ,2.323,15.786,18.788\C,0,1.635,15.717,20.086\C,0,2.463,17.573,16.956\C
 ,0,3.205,14.718,18.175\C,0,4.686,15.12,18.225\C,0,5.578,13.974,17.794\
 O,0,6.628,13.72,18.427\O,0,5.282,13.278,16.797\C,0,-1.971,15.532,19.49
 4\S,0,-2.52,16.587,20.839\H,0,5.19745429,12.83203845,16.27231825\H,0,4
 .28914319,9.38928135,23.67869182\H,0,-0.2998537,23.56803753,21.3395594
 3\H,0,-1.98742462,23.1160248,21.31030948\H,0,-1.04030346,22.86357572,2
 2.75678714\H,0,0.14828792,23.65733182,17.77265068\H,0,-1.28756335,22.6
 8076651,17.96686183\H,0,1.27117567,21.86173212,18.38348224\H,0,-3.0943
 7723,21.96434238,26.0106698\H,0,-3.23874493,21.01813212,24.54885217\H,
 0,-2.43218352,20.08060725,27.20702422\H,0,-2.85406321,16.24882594,26.9
 7035591\H,0,-2.89925121,17.87674936,27.6035147\H,0,-1.42608121,16.9421
 8016,27.70055725\H,0,0.52813879,13.62762211,26.25568003\H,0,1.34930359
 ,12.31549783,25.44507228\H,0,-0.39411738,12.41977754,25.393345\H,0,4.1
 8722589,13.31887784,23.22676074\H,0,3.56008132,13.20289377,24.41682687
 \H,0,2.28631676,11.92677458,21.87726659\H,0,1.76371399,11.37696826,22.
 9913446\H,0,4.99779582,15.65448719,19.09793002\H,0,4.92556353,16.07986
 986,17.81737375\H,0,2.984253,13.71001405,18.45808142\H,0,2.86372501,14
 .30442613,17.2490475\H,0,3.19184144,16.92903599,16.50990526\H,0,2.8935
 5227,18.53853214,17.12114368\H,0,1.62076615,17.66508779,16.30250021\H,
 0,-1.95589657,14.51384669,19.82268788\H,0,-2.64277363,15.62986317,18.6
 6693108\H,0,-2.92057432,17.35677397,21.8203706\H,0,-1.37362878,15.0211
 2994,25.5895916\H,0,2.29182092,13.74666979,20.55122224\H,0,0.69529041,
 19.33354202,18.00322179\H,0,-1.83073519,21.07173083,23.62642769\H,0,-0
 .98714315,15.82354346,19.19080352\\Version=ES64L-G16RevA.03\State=1-A\
 HF=-3535.0680424\RMSD=1.974e-09\Dipole=-1.6772277,-1.4767082,-1.738718
 3\Quadrupole=-37.5019121,9.1396438,28.3622683,20.2039315,-7.0660196,9.
 7987588\PG=C01 [X(C35H36Fe1N4O4S1)]\\@


 "MATHEMATICS IS THE ART OF GIVING THE SAME NAME
 TO DIFFERENT THINGS."
                    - H. POINCARE
 Job cpu time:       0 days  1 hours 36 minutes 12.7 seconds.
 Elapsed time:       0 days  0 hours 24 minutes 27.8 seconds.
 File lengths (MBytes):  RWF=    898 Int=      0 D2E=      0 Chk=    174 Scr=      1
 Normal termination of Gaussian 16 at Sat Jan 28 18:45:13 2023.
